# vtk DataFile Version 3.0
bernard3D dataset
ASCII
DATASET STRUCTURED_POINTS
DIMENSIONS 128 32 64
ASPECT_RATIO 0.03125 0.03125 0.03125
ORIGIN 0.000000 0.000000 0.000000
POINT_DATA 262144
SCALARS volume_scalars double 1
LOOKUP_TABLE default
0
0
0
0
0
0
0
303.2
15274.7
15209.1
15160.1
15150.5
15250.1
15527.7
15964.4
16368.8
16643.3
16797.6
24314.5
24470.1
23140.4
23275.9
23487
23822
24073.6
25193.3
25320.3
24515.7
17479.9
17548.5
17768.7
17756.5
17883.5
18032.8
18223.2
17967.2
17815.7
17382.1
17030.6
16006.5
15536.7
15698.4
15917
16281.4
16505.8
16577.5
16580.5
16559.9
16475.4
2465.82
2429.27
2357.53
2179.86
2041.44
2028.41
1771.71
1696.05
2019.3
0
0
0
0
0
0
0
0
0
0
0
0
2033.31
1707.56
1782.6
2040.99
2053.86
2189.56
2300.38
2395.3
2450.1
16524.6
16611.9
16638.7
16640
16566.4
16349
15986.7
15760.4
15604.3
16078.2
17112.6
17457
17837
18044
18312.6
18108
17966.1
17838.3
17854.2
17617.3
17539.8
24542.3
24452.7
25280.5
25104.5
23978.9
23690.3
23420.4
23241.3
24525.4
24318.6
16806.6
16647.2
16388.1
15960
15533.4
15252.2
15149.8
15162.2
15209
15276.9
301.531
0
0
0
0
20364.7
4060.05
0
0
9940.78
1216.75
1096.54
0
386.114
426.441
10924.2
10752.3
14734.4
14752.9
14803.2
14756.5
14895
14744.6
14831.1
14889.8
14742.2
14804.1
11979.5
12006.6
12033.6
16786.2
17033.1
17121.2
17229
18771.3
20155.7
20212.7
18897.2
17611.1
17707.2
17918.9
17774.8
17510.6
17107
16794.1
16362.8
15578.1
15375.4
15511.6
15806.9
16077.3
16236.7
16389.4
16469.3
16479.3
16465.5
16416.5
16324.6
16241.8
16157.8
16077.5
15899.3
15967.3
15849.3
15499
15573.8
2600.67
2000.46
1905.37
1823.22
1619.51
0
0
1630.41
1833.86
2044.58
2017.05
2613.74
16672.6
16477.2
16786
16590
16415.7
16369.9
16365.9
16336.6
16410.8
16491.2
16548.6
16569.7
16559.7
16485.3
16321.4
16143.3
15875.4
15582.6
15454.2
15660.5
16373.9
16890.7
17289.7
17649.7
17888.5
18109.6
17857.8
17726.8
17625.8
20268.4
20203.7
18853.9
18706.7
17183.1
17100.2
16949.6
16735.3
16387.4
15971.8
17961.4
17832.5
17757.6
17761.8
17763.4
17783.6
17765.9
17722.6
14984.8
17902.8
10751.4
10922.8
423.97
383.907
0
11135.8
12626.9
24366
11289.3
22071.4
21822.4
14489
1502.16
771.236
726.196
10935
16881.1
12749.7
12679.7
12468.5
12446.7
12236.2
12199.4
11977
12045.5
11757.3
11839.8
11893.9
11637.6
11695.8
11748.1
11790.2
17353.3
17466.6
18450.6
20590.1
21465.7
22856.9
24121.9
23098.2
21902
21847.9
21678
21320.4
20179.7
16078.8
15662.2
15324.7
15403.1
15649.2
15838.2
16037
16188.4
16403.4
16531.3
16736.9
17171.3
28297.8
28275.4
27967
28063.2
28107.7
28009.2
27817.8
27756
27817.1
27343.8
27445.5
26880.2
27586.5
2309.95
1970.24
1604.62
1617.26
1985.34
2326.58
26895.2
26373.1
27077.3
27045.3
27645.8
27663.2
27563.9
27874.5
27960.7
27968.8
27898.3
28024.5
28305.1
17787.9
17048.4
16730.6
16537.5
16300.9
16091.7
15884.4
15667.9
15382.9
15292.3
15587.6
16896.9
20737.9
21477.9
21801.3
21946.5
22017.6
21983.3
24210.6
24095.5
21629.5
21167.4
19193.5
17736.6
17284.9
17346.9
17261.6
11966.4
11930.8
11873.6
11824
12067.4
12033.6
11976.3
12267.8
12550
12528.1
12793.5
12826.8
13169
16905.4
10930.6
721.324
4135.59
10443.7
5344.27
20866.4
21610.7
29303.5
20532.6
9052.04
11207.8
914.661
10999.7
17113.9
13150.8
13042.7
12665
12347.5
12439.3
12107.9
12069.5
11919.7
11937
11755.8
11835.9
11587.2
11667.3
11727.6
20393.9
21617.6
22017.6
22208.2
22230.8
21689.6
21788.3
21835
23070.7
24134.7
21628
21863.8
21581.1
21251.6
20853.3
20275.1
15314
15252.4
15420.6
15498.3
15723.4
16026.9
16528.6
17217.1
28621.7
28710
28128.6
28084.4
27953.2
27961.1
27946.5
28062.7
27950.9
27786.7
27887.3
27812.7
27591.2
27551.3
27015.4
26593.5
26237.6
2678.12
2427.48
2445.26
2696.07
26080.3
26498.6
26646.5
27400
27449.3
27686.2
27737.6
27723.9
27859.5
27969.6
27919.7
27881.9
27835.4
27942
28162.6
28045.3
29479.2
17886.2
16814.9
16201
15918.9
15885
15329.7
15178.4
18471.5
20489
20954.1
21346
21693.9
21980.2
21731.6
24229.9
24267.7
21935.4
21876.6
21749
21577
22186.5
22057.7
21680.7
20778.8
17999.6
11950.7
11887.9
11814.2
11730.9
11987.2
11895
12173.2
12097.6
12433.2
12733.7
12682.5
13062.2
13408.2
17357.7
10993.4
904.803
11528.7
8885.33
20075.5
18971.2
28412.4
7989.39
14177.8
1748.45
8050.74
7747.54
15732.9
15398.7
15051.9
14957.9
14949.6
12311.1
12033.7
12163.3
11921.7
12027.1
11806.8
11899.8
21696.5
22301.8
21823.8
22226.4
22332.4
22358.9
22365.8
22378.2
22362.7
22298.5
22203.1
22082.9
24319.6
24108.8
21377.3
21103.2
21119.8
20635.6
18239.3
18581.6
19528.7
19331.6
17586.9
15983.7
16890.3
27839.7
29627.4
27935
28003.8
27926.3
27938.1
28014.1
28090.6
28067.1
28165.5
28124.1
28209.1
28155
28139
28172.2
27949.7
27759.5
27143.5
26441.9
26520.5
2867.56
2885.71
3783.97
26277.2
26846.4
27354.9
27657.4
28021.8
28010.1
28064
28111.3
28052.1
28083.9
28022.7
28050
27938.7
27844.8
27849.7
27932.1
28056.9
27948.2
28134.1
17393.7
16254.5
17151.8
19702.4
19800.4
19884.2
20285
20801.3
21239.5
21185.5
21469.6
23120.3
24444.8
22203.9
22330.2
22417.3
22480.7
22489.1
22457.2
22388
22314
22248.2
21790.2
22273
21610.8
18255.1
12099.4
11995.4
11894.8
12138.8
12301.3
14859.1
14932.6
15105.9
15393.7
15686.9
15750.9
7742.92
8056.97
11079.2
11882.1
2652.52
18974.8
29999.3
8635.18
11349.3
2006.02
1478.92
16243.8
15948.2
15623.4
15307
15127.9
17562.3
17537.9
15197.9
15090.1
15233.2
21669.2
22380.3
22073.5
22563.1
23008.8
22666.7
18692.8
18796.8
18812.1
18794.3
18735.4
18626.9
18483.6
18297.2
18068.2
17732
20323.3
22689.9
21031.3
20750.2
20520.3
20181.5
19460.3
19860
19941.4
15900.3
17259.7
30771
29773.7
27692.3
27858.5
27923.4
27994.9
28067.3
28101.8
28160.2
31574.1
31508.2
31665
27537
27376
27420.9
27382
28150.6
28213.1
27602.5
27140.1
26743.7
3316.3
3333.47
26709.4
27082.8
27347.7
27878.8
27576.7
27140.3
27092.9
27099.7
27408.5
31458.3
31682.7
31805.1
27990.1
27983.7
28014
27970.7
27913.6
27853.8
27872.7
27820.6
30431
18353.6
16276.7
20010.1
19992
19962.3
20354.1
20726.7
21073.5
21074
21307.9
24278.5
19249.2
17982.4
18308.7
18521.5
18663.5
18771.4
18831.8
18826.7
18762.4
18513.3
22710
22697
22600.1
22057.2
22378.2
21910.6
15201.8
15066.6
17708.7
17726.6
15087.5
15112
15295.5
15618.5
15958.2
16219.3
1468.61
5094.51
15905.4
5526.43
19745.7
22097.6
15694.2
11384.2
1057.32
1837.91
13807.3
13669.7
13153.5
12850.3
12835
12652.8
15422.2
15336.4
20222.8
24192.9
26407.7
26308.2
21044.6
19119.6
19280.4
19373
19431.3
19447.1
19415.2
19332.3
19210.5
19025.4
18777.7
18493.2
18170.9
17838.9
19223.9
19090.4
16731
20509
20142.6
20143.6
20032.6
20002.1
15647.6
17053.1
30675.2
30538.1
28012.9
27938.2
28020.8
28036.4
28069.4
31750.8
31950.8
34915.2
34854.3
31909.5
35177.8
35418.9
32224.4
31696.3
31449.3
27533.7
27550.2
28301.9
27535.5
27156.5
3464.19
3472.64
27117.7
27267.4
27977.1
27428.4
27485.4
31941
32080.2
32450.8
35790.2
35602.8
31805.1
35142
35173.5
31825.5
31650.6
27916.1
27956.5
27969.8
27998.4
27921.5
28991.7
30681
17606.4
15865
20104.8
20148.6
20350.1
20609.8
20611.8
20762.2
19100
20786.7
17902.1
18226.5
18534.9
18807.6
19049.2
19228.1
19350.2
19434.9
19469.3
19445.6
19392.2
19292.4
19125
20999.8
26593.2
26395.3
24149.3
20206.3
15575.2
12526.5
12735
12972.8
13235.8
13554.5
13891.2
14184.2
1824.55
1051.87
12046.3
15417
1776.37
11006.1
15577.7
1929.07
1327.39
14526.1
13863.4
13573.9
13290.6
13060.1
12865.2
12697.4
12869.1
18977.3
22739.4
18817.6
19159.5
21547.5
23829.4
24051.9
22043
22153
20144.7
20149
20077.4
19951.3
19780
19481.9
19145
18744.8
18322.5
17895
19409.7
20759.8
16842.7
16431.3
20249.3
20241.9
19764.3
20123.4
16382.5
30840.7
30338.1
28559.4
27873.1
27877.8
27930.4
31686.6
35225.5
35433.9
31869.4
32230
29021.2
29420.5
28902.5
32814.7
32937.9
33203.7
35800.2
35433.6
28098.5
27980.3
27885.1
27464.4
3953.61
3968.5
27369.3
27620.6
27710.3
28102.3
35848.1
36346.6
33722.2
32751.5
33131.7
28480.6
28308.2
28821.9
32112.8
31841.3
35288.5
35058.1
31574.2
27832.1
27848.8
27888.9
28110.9
30130.2
30564.7
16676.1
20231.4
19871.6
20096.1
20301.2
16287.6
16891.4
20837.1
19463.1
17947.7
18362.4
18774.2
19175.4
19510.7
19803.3
19970.1
20090.2
20157.4
20151.6
22142.3
22043.5
24055.9
23820.9
21555.9
19154.5
22816.2
22920.8
19255.1
12832.9
12665
12831
13029.1
13274.7
13881.6
14289.6
14458
1325.77
1903.82
15312.8
10861.2
11027.7
2639.27
2211.01
1772.92
14520.4
13933.5
13664.2
13442.4
13254.2
13095
18047.1
18669.3
18961.1
19225.6
19541.5
19848.3
20112.1
20317.5
22689.7
22902.5
25208.8
25189
22837
22688.4
22483.8
22221.9
21934.6
19328.2
18914.7
18467.3
18007
17559.9
20911.7
18864.7
16478.3
15962.6
19739.8
19922
20130
17537.5
30212.5
30029.4
28306.8
27985.3
27882.2
34924.3
35122.9
32042.2
28281.8
28893.7
28455.4
28670.9
28917.3
29492.3
29905.8
29981.4
30113.1
30038.3
36271.3
35876.6
28237.9
28121.2
27663.1
4201.39
4211.92
27563
27888.8
28174.6
35770.2
36427.3
29798.3
30123.1
29677.3
29626.9
29249.5
28974.7
28216.6
28137.5
29113
28251.5
31917.6
34960.1
34727.1
27696.8
27941.8
28086.9
28777.6
30291.6
18788.5
15688.9
20006
19843.8
20216.6
16448.4
18928.7
20972.7
17611.2
18050.2
18509.1
18953.1
19359.5
21968
22248.9
22503.2
22707.2
22857.4
25188.8
25205.5
22903.8
22677.6
20325.1
20113.2
19861.6
19536.9
19243.5
21028.2
18799.4
18075.7
13063.3
13229.4
13416.3
13651.2
14257.1
14560.9
1767.51
2187.52
2590.34
10844.3
2699.52
2694.98
1696.88
1916.25
14336.5
13993.1
13747
13191.6
13099.5
17795.1
18801.1
19053.8
19445.8
19818.3
20163.7
20457.6
20706.5
20881.7
20938.3
20910.1
20950.7
23436.4
23507.2
23303.2
22853.7
22619.1
24041.1
23334.9
18911.3
18528.3
18084
17612.5
19318.6
18884.6
16455.3
20061.6
19822.1
19657.6
16100.1
30791.3
30256.4
28861.9
28081.1
31578.9
34811.3
35071.8
28314.4
28567.1
28892.5
28264.8
28549.4
28232.8
29315.2
29298.2
29375.9
29879
30776.2
30922.7
30682.1
36596.8
32557.7
28205.6
27828.7
4224.28
4230.4
27743.2
28102.6
32474.9
36465.6
30409.4
30651.6
30816.1
29814.9
30054.2
29075.3
29204.5
29074.6
28258.1
27813.3
27189.9
28598.5
28237.7
34898.3
34605.6
31405.2
27925.6
28354.8
32364.7
30492.5
16357.3
19756.3
19924
20058
16464.8
18956.9
19376.9
17660.1
18127.1
18570.9
18930.7
23347.7
24018.8
22564
22778
23204.9
23396.3
23375
20928.1
20915.1
20953.6
20884.4
20697.9
20454
20168.6
19817.6
19458.5
18998.2
18801
17856
13407.2
13542.7
13725.2
13990.8
14398
2190.73
1640.24
2697.81
2608.8
0
2776.36
1932.99
2288.09
14288.9
14044.7
13432
13359.7
17044.4
18763.2
19150.8
19590.1
19971.5
20333.1
20646
21005.2
21129.7
21266.5
22094
22956.8
23215.4
23106
22834.8
22397
21778.8
21014.5
19976.9
23671.2
20817.6
18497.1
18100.5
17655
19319.7
18883
16444.2
19891.6
19946.5
19746.6
16799.3
30065.7
32320.2
28731.1
34959
34559.5
31456.4
28274.7
28688.1
29086.7
27990
28590.3
27793.8
28959.3
28829.7
29157
29453.5
29538.3
29605.1
30491.5
31461.8
34583.1
33297.8
28441
27959.7
4773.49
4710.91
27886.5
28411.4
33210.7
34487.6
31118
30705.7
29601.3
29579.4
29463.9
29187.9
28844.6
28475.2
27760.5
28167.1
27214.2
26838.3
28514.4
28197.6
31303.6
34323.9
34723.9
28317.4
28784.2
30127.4
17150.8
19861.8
19654.9
20115.1
16506.3
18951.1
19381.6
17701.5
18143.8
18521.1
20821.5
23613.3
19871.7
20967.1
21705.3
22363.3
22799.7
23064.1
23153
22842.9
21952
21241.5
21144.5
20994.8
20615.6
20319.2
19963.9
19612
19189.1
18776.3
17097.3
13334.2
13797
14027.3
14527.5
2272.36
1868.43
2784.93
2716.39
0
2793.65
1478.66
2462.52
14303.2
13851.8
13551
13519.8
18499.1
19171.3
19642.6
19994.1
20313.2
20738.3
21250.2
21400.4
22665
23736.6
23933
24395.1
25493.3
25476.3
24807.5
23268.4
21923.4
21302.5
20498.9
21842.8
20728.1
18426.1
18092.8
17653.4
21145.3
18881.8
16399.7
19750.7
19567.3
20216.7
18025.7
30151.2
32035.1
35030.8
34524.5
27573.1
27979.2
28699.4
28900.7
27292.4
27493
27580.1
28523.1
29244.5
29801.3
30107.3
30341
30483.5
30455.5
30171.1
30877.4
35225.5
33972.3
28844.5
28085.8
27652.6
4636.67
28011.3
28784.4
33806.6
34856
30812.9
30163
30452.8
30523.8
30364.7
30132.6
29834.7
29274.6
28588.9
28447
27161.7
27102
29337.5
28588.1
27870.1
27450.8
34313.1
34778
31785.4
31717.5
18725.6
20293.4
19651.9
19890.8
16388.2
18953.6
21210.8
17707.1
18129
18437.9
20694.5
21767.6
20465.6
21287.4
21899.3
23099.5
24616.7
25343.5
25251.3
24228
23899.7
23689.7
22503.1
21386
21256.2
20669.2
20278.9
20001.9
19665.8
19224.9
18528.8
16943.5
13529.3
14061.1
14594.1
15163.8
1430.6
2799.61
2734.8
0
2821.26
1707.35
15162.6
14313.9
13708.9
13678.7
17267
19030
19550.3
20004.3
20127.8
20735.9
21420.2
21991.1
23981.9
24378.6
26780.2
27315.6
27708.7
27458.5
26738.4
25769.1
24594.1
23628.2
21225.6
20644.2
22098.6
20790.8
18341.4
18070.4
19696.8
21130.1
16800.9
16332.3
19867.1
19655.8
16009.8
31388.3
35784.4
34971.7
31484.3
27294.6
27665.7
28316.1
29094.7
29832.9
28056.9
27303.8
28688.6
29644.5
29900.6
30251.1
30693
31094
31227
31199.7
30875.7
30284.5
35642.1
34398.4
29208.5
28177.2
27634.5
27410.2
28074.4
29125.1
34259.6
35565.8
30282.5
30898.7
31233
31244.8
31030.2
30643.3
30178.3
29712.6
29443.2
28918.4
27456.2
27892.5
29863.6
29020.5
28225.8
27544.9
27157
31252.6
35235.6
36468.1
31378
16259.4
19781
19592.7
16324.4
16872
21199.5
19750.4
18103.2
18336.6
20745.8
22062.8
20614.2
21199.5
23549.8
24553.4
25680.5
26675
27412.7
27610.5
27206.4
26697
24348.3
23943.1
21936.4
21424.5
20666.4
20096.6
20025
19577.6
19067
17335.5
13654.1
14084.8
14631.2
15152.9
1646.54
2831.33
2805.96
0
2827.61
1904.15
15141.6
14315.9
13769.3
13792.7
18568.2
19400.1
19960.1
20057.6
20508.1
21570.6
22819.1
24363.7
26786.4
28273.9
29023.9
30990.7
31506.5
30702.4
29023.3
26361.1
25113.6
23638.1
21642.9
20446.6
24165.6
20824.6
18308.2
18035
19663
21062.8
16808.1
16271.7
19522.2
19824.7
18572.2
36192.1
37564.7
28418.3
27333.8
27339.4
27874.7
28577.9
29254
29875.8
26685.8
28711
29219
29303.9
28881.8
29261.3
30033.3
31270.3
31735.7
31757.9
31460.1
30736.4
35298.9
34822.4
29487.9
28195.6
27577.4
27357
28061.3
29440.4
34714.9
35345.9
30707.6
31474
31777.7
31689.2
30778.5
29397.6
28747.6
28298.5
28971.1
29030.6
28844.8
27140.6
27141.5
29249.8
28597.7
27790.4
27237.5
27141.2
28143.2
35218.7
36177.8
18756.2
19922
19646.3
16204.5
16884
21138.1
19715.8
18061.5
18294.9
20763.4
24163.6
20441.7
21531.9
23616.8
25073.2
26325.5
28851
30676.1
31449
30766.6
28968
28202.9
26644.6
24348
22741.4
21575.9
20454.3
20043.3
19973
19443.1
18618.9
17086.3
13761.7
14329.7
15135.9
1837.48
2844.66
2787.5
0
2881.6
2099.58
15120.5
14299.1
13854.6
17125.9
19046.4
19734.4
20016.8
20197.6
21672.5
23258.4
24709.4
27802.7
29368.2
32925.9
35118.3
45934.5
40183.6
34154.7
30778.2
27232
25013.4
23382.2
21931.2
24995.9
23925.6
18633.4
18263.9
17996.4
17583
21009.1
20668.4
21483.3
21368.7
23102.2
24164.1
35039.3
29168.6
28028.6
27080.5
27351.8
28052.5
29943
29310.8
25892.7
28237.4
28843.9
28526.4
27970.5
28368.5
28911.2
29436.5
29950.8
31441.5
32072.5
31821.4
31167.7
37703.3
35191.5
29841.1
28220.2
27441.3
27470.3
28077.2
29778.4
35074.8
37913.7
31161.8
31850.8
32076
31149
29866.2
29371.2
28673.2
28121.9
27827.5
27828.7
28632.6
28434.8
26241.9
29524.1
30687.4
28130.6
27316.6
26909.5
27852
28683.7
34686.7
24335.5
23178.5
21475.4
21438.6
20757
21087.4
17638.2
18018.9
18243
18558.1
23929.3
24993.8
21849.9
23557.6
24984.3
27204
30707.3
33881.8
40154.2
46596.7
35072.1
32892.2
29353.1
27730.9
24704.7
23226.7
21673.2
20175
20008.1
19770.7
19075.3
17134.9
13842.9
14306.9
15111.2
2018.42
2822.68
2853.77
0
2857.29
1723.25
15094.8
14283
13935.7
17724.2
19385.6
19901.2
20016.5
21586.2
22971.7
24895.6
28501.2
30408
35386.5
50579.7
59604.3
55766.9
50379.3
39729.1
30954.1
26995.3
24765.1
23396.2
26074.9
23193.6
19298.1
18534.8
18237.3
17946.7
17532.4
17126
18757.3
21361.5
21037.1
21617.5
19898.7
30417.1
28769
27422.4
26837.4
27650.2
29751.9
30276
29985.7
27362.6
29121.2
28441.7
27786.8
28017.1
28369.2
28780.2
29440.3
30010.2
30349.2
31891.4
32102
35206.8
37663.3
31528
29977.9
28291.1
27495
27595.1
28237.1
29848.5
31454.7
37869.2
35200.4
32097.6
31770.7
30316.6
29950.1
29183.3
28587.5
28192.4
27882.6
27563.4
27875.6
28593.6
27433.1
26645.3
30216.5
29491.6
27770.2
26832.7
27252.1
28562.6
34809.7
19803.6
21707.6
21127.8
21222.8
18848.5
17202.9
17589.2
17973.8
18209.7
18457.4
19297
23194.2
24968.7
23394
24954.5
27082
30920.7
39650.4
51164.9
55800.3
60105.6
50520.9
35389.1
30412.3
28467.9
24882.8
22974.6
21598.8
20006.9
19893.3
19421.6
17862.3
14242.2
14285.4
15075.6
1668.29
2877.13
2803.41
0
2903.83
1938.29
15089.8
14263.2
14317.2
18536.9
19642.1
19917.5
20544.8
22423.1
24837.5
28541.4
31392.3
37312.3
52115.4
64171.1
64888.3
50619.3
44733.2
38851.2
31277.5
25663.8
24265
24208.9
22798.8
19462.6
19076.3
18422.9
18203.1
17868.8
17450.1
17029.9
16644.7
19371.6
19275
20210.4
19221
30974.7
28234.6
27129.3
27014.2
29472.7
29336.3
30417.3
26238.3
30432.1
28956.8
27840.2
27974.3
28234.5
28403.4
28580.5
29109.3
30024.2
30347.8
31120.3
32175.3
38680.6
34252.8
31606.8
30143.8
28491.1
27604.7
27599.5
28430.6
30054.4
31577.6
34531.6
38873.4
32189.3
31051.9
30328.3
29814
28833.9
28399
28233.7
28007.3
27845.2
27615
28567.4
29193.8
27029.7
30852
29605.1
28909.9
27121.5
26996.4
28141.5
28730.9
19729.5
20244.9
19344.3
19483.3
16637.4
17111.7
17511.7
17897.9
18175.3
18361.1
19060.9
19458.7
22793.1
24027.6
24089.8
25677.6
30506.9
38854.7
44793.3
51892.8
64819.8
64143.5
51929.1
37576.6
31513.4
28506.7
24845.5
22454.4
20580.5
19902.2
19667.6
18643.4
17329.3
14270.8
15047
1866
2860.73
2838.19
0
2885.48
2137.56
15249.7
14246.2
17346.2
18941.9
19758.8
20003.6
22053.9
24416.1
27758.1
30208.4
23925
41306.3
55234.5
61704
51211.4
49402.8
47119.5
34290.1
27636.5
24519.8
22722.3
24564.2
20977.2
19244.5
18844
18332.3
18132.9
17768.6
17343.6
16939.9
16492.6
19335.7
19230.9
16368.5
31147.9
34186.4
27515
26760.6
27097.2
27890
29918.7
30171
28740.3
29163.2
28068.4
28078.1
28235.3
28221.9
28357.7
28534.8
28791.4
29898
30416.9
30802.8
39232.3
38802.2
30573.2
31542.9
30295
28610.2
27588.3
27599
28507.1
30176.1
31526.5
30485.6
39068.2
39053.4
30754.5
30396
29627
28646
28439.6
28211.8
27976.2
28007.1
27960
27879.8
29055
29267.7
26952.7
30378.4
28058.5
27146.5
26653
27412.5
33335.2
31307.5
16502.1
19320.1
19449.8
16379.7
17030.5
17406
17805.5
18114.9
18268.1
18812.7
19402.2
20972.8
24572.4
22718.4
24393.3
27679.2
34348.9
47740.8
49850.9
52231.8
61784.4
55416.8
41280
26612.2
30214.3
27842.8
24467
22094.2
20005.5
19764.9
18996.5
17304.5
14256.3
15034.3
2051.78
2906.7
2863.02
0
2912.91
1801.26
15240.1
14232.2
17391.7
19141.4
19828.5
20238.2
22727.1
25249
12202.5
23231.1
28632.8
43987.4
55339.8
58595.4
53104.8
49906.1
37196.6
27993.6
24646.6
23318.6
23658.7
22586.6
19025.3
18969.1
18602.2
18279.4
18016.7
17629
17187.2
16825.1
16244.8
18917.7
19174.5
16561.3
31281.4
32330
26685
26200.1
27526
28563.4
31426.9
27771.8
29227
28553.6
28216.6
28293.9
28088.5
28196.3
28395.3
28603.9
28783.7
29856.9
30486.9
37959.2
39158.6
31697.4
30636.5
31025.5
30404.7
28670.8
27659.6
27544.9
28521.3
30233.9
31241.2
30557.7
31691
39238.1
37848
30458.7
29522.3
28688.4
28560.4
28257.1
28009.6
27885.8
28089
28058
28218.7
29335.6
27548.7
32338.6
28870.5
27234.5
26275.9
26600.7
28343
31207.5
16712.4
19287.2
19014.8
16157.9
16916.5
17261
17671.3
18015.2
18211.4
18543.6
18981.5
19027.6
22644.9
23674.8
23364.1
24667.9
28099.7
37353.9
50564.7
54354.7
59256.3
55989.8
43791.6
35001.2
23440.1
12393.6
25277.8
22765.3
20254
19841.1
19190.3
17365.7
14255.8
15139.6
1736.85
2875.15
2881.63
0
2912.18
2061.73
15568.5
14609.1
17475.4
19275.1
19880.4
20562.7
5644.81
5911.54
12331.4
14554.2
24560.8
28471.6
42575
41786.5
42019.9
34034.5
27852.1
24588.5
23503.4
22057.8
23398.8
19994.4
18810.3
18730.7
18399.8
18177
17848.3
17452.4
17016.7
16681.7
16164.3
19135
19412.9
18025.6
30558.3
27003.2
25715.6
27394.9
27768
32077.5
27074.4
29287.1
29711.1
28432.6
28317
28109
28071.4
28210.2
28507.2
28713.6
28830
34049.4
37922.9
37974.8
31946.8
31635.8
30573
30836.9
30308
28627.8
27670.6
27341.1
28463.6
30191.6
31318.9
30504.9
31606.6
32038.2
38069.7
37963.9
33860.4
28778.4
28685.8
28439.9
28137.1
27917.6
27848
28158.2
28230.9
29290.5
30559.2
26945
31097.2
27618.2
27181.9
25771.8
26881.8
30566.8
18178.2
19468.3
18880.4
16190.5
16770.6
17100.1
17500.7
17870.7
18132.1
18342.5
18727.4
18834.1
20318.3
23495.6
22071.8
23542.1
24643.4
27978.2
34256.5
42130.4
48918.7
42708.4
27992.7
24616.4
14699.9
12184.8
5968.14
5688.78
20637
19902.6
19332.5
17469.6
14613.9
15226.2
1968.41
2940.03
2867.33
0
2900.58
2297.86
17359.3
14540.1
17584.8
19301.8
19998.8
20653.1
1505.35
1964.52
3853.01
13387.6
14611.2
16779.3
17794.7
20263.5
29326.6
27067.8
24156.3
23305.3
21918.1
23897
21187.9
18594.9
18715.3
18501.6
18248.3
17989.9
17633.1
17234.9
16830
16503.9
16161.8
18780
19053.3
17921.5
29731.8
25772.2
29452.2
27383.3
29283.4
28278.1
28743.8
29802.6
28589.3
28348.6
28064.3
28004.1
28137.3
28404.5
32481.9
32997.7
37138.6
38010.9
34427.4
30765
32131.8
31448
30346.1
30900.5
30249.6
28708.4
27382.6
27551.3
28510.7
30126.5
31134.4
30256.3
31392.8
32129.2
30811.9
34441.5
37937
36944.2
32821.7
32429.5
28342
28065
27853
27839.7
28166.7
28466.7
29868.5
30180.6
27364.2
28651.7
27481.5
27614.1
26031.8
34147.6
18837
19160.5
18890.4
16215.4
16599.7
16918.3
17293.3
17665.2
17962.8
18168.2
18467.8
18732.7
18625.9
21703.9
24005.3
21937.7
23352
24203.4
27132.3
29407.2
20636
19175.6
18085.4
14717.1
13437.2
3942.57
1964.52
1508.73
1940.03
19993.8
19375
17580.4
14572.3
15423.2
2208.81
2933.31
2916.33
0
2967.04
2507.39
17080
14874.5
17723.7
18951
20104.7
1822.75
1742.63
2152.44
2821.35
4138.92
7584.65
15711.5
28606.2
27003.7
24541.8
23520.2
22718.7
21661.3
23658.8
21635.3
18626.8
18689.9
18484.8
18252.8
18067
17751.1
17375.6
16989
16601.8
16292.3
16007.1
15605.9
15412.9
17621.4
32794.9
24063.1
26926.1
27766.7
31719.3
28188.2
29922.5
32424.5
31975.4
31602.4
31551.3
31756.3
32070.2
35730
36059.3
33208.6
33760.5
30598.3
30701.5
31082.7
32091
31171.6
30182.5
30838.3
30155.5
28728.6
27533.3
27608.8
28545.8
29932.6
31003.3
30074.5
31090.1
32084.3
31166.3
30725.3
30520.8
33609
33062
36013.7
35619.8
31972.4
31607.6
31357.6
31359.6
31791.2
32059.6
29652.1
28448.8
28937.2
28130.1
27110.1
29761.1
26102.2
17651.9
15467.2
15613.4
16106.1
16393
16693.3
17054.2
17414.8
17744
17999.7
18181.8
18482.9
18729.8
18650.8
21656.5
23804
21686.9
22840.4
23559.1
24654.1
27094.9
28733.4
15645.5
7739.47
4145.01
2826.24
2159.74
1749.41
1830.71
20124.1
19147.5
17695.5
14904.1
15708.1
2432.36
2909.93
2893.28
0
2982.32
2969.93
2926.3
15166.9
14714.1
18238.7
20023.9
20647.8
2545.05
2806.06
3292.8
4039.44
7140.43
24845.8
23764.7
23244.3
22883.3
21700.1
22885.2
22824.9
20658.5
18499.2
18316.1
18413.3
18257.9
18055.1
17780.2
17447.1
17068.9
16706.2
16338.8
16042.9
17688.1
17589.3
17689
19789.9
32975.1
29930.6
31595.1
33398.2
31652.9
29838.5
36332
35180
31515.1
31408.2
31650.5
31967.5
32334.4
32634.9
28978.1
29159.2
30311.6
30785.1
30791.3
31927.1
31859.5
30929.2
29987
30889.2
29960.4
28545.5
27619.6
4789.07
28395
29780.1
30896.7
30015.1
30868.9
31839.7
31966.8
30815.5
30783.3
30156.5
29084.5
28995.7
32604.6
32225.2
31844.1
31493.6
31230.1
31245.5
34942.9
35616.7
34024
31814.5
32970.9
31381.6
29797.9
32528.8
19795.4
17777.2
17692.2
17790.7
16139.1
16432.3
16771.2
17119.6
17452.9
17728
17983.3
18213.9
18423.9
18342.9
18541.1
21019
23109.8
22924.3
21793.6
22961.2
23302.7
23854.5
25095.6
6321.51
4085.19
3295.21
2671.14
2555.77
20657
20118.2
18331.1
15061.8
15229.2
16320.9
2573.05
3017.4
2991.6
0
3049.37
2799.31
2577.98
15709.2
15064.4
18244.7
18840.1
20465.9
21199.9
21714.6
22149
22433.4
22582.1
22623.3
22376.9
21417.3
22771.4
23612.9
21692.8
19190.8
18297.9
18204
18317.8
18173.4
17980.5
17748.6
17417.2
17072.9
16719.1
18262.5
18068.3
19669.3
19718.6
18162.7
18353.4
31464.7
31116.9
31288.2
33736.6
31758.3
33444
33086.8
32102.8
27807.5
27764.4
28086.4
28382.9
28637.4
28875.5
29037.7
29160.5
30133.8
30833.1
30848.8
31309.9
32131.7
31249.9
30434.7
30272.1
30606.9
29752.4
28438.1
27604.1
4546.82
28294.9
29575.1
30590.8
31053.7
30291.2
31141.5
32082.6
31427.7
30860
30810.5
29945.7
29112.3
29037.5
28836.9
28591.3
28349.2
28034.5
27711.8
27554.8
31853.2
32427.2
30911
31457.1
33386
31337.2
34436.9
31656.5
18462.3
18266.4
19826.4
19757.5
18150.2
18327.1
16770
17093
17388.5
17673.6
17875.4
18146.9
18327.3
18231.6
18352.8
19250.9
21875.9
23799.8
22810.1
21549.6
22475
22670.9
22612.6
22486.8
22197.9
21737.3
21259.4
20583
18973.9
18247.7
15179.3
15438.6
2886.79
2786.72
2999.04
6110.21
0
3135.71
3123.64
2640.01
17231.6
15544.5
15634.3
18716.8
21346
22103.4
22703.8
23008.9
22872.5
22718.1
22552.2
22261.9
23190.2
21635.4
19208.8
18074.8
17994.9
18252.7
18229
18087.1
17917.7
17659.9
17360.9
18835.6
18579.4
20027.4
19940.4
18277.5
18367
16711.9
17048.3
17778.2
31494.2
27955.7
29578.3
29392.3
30167.2
28721.6
28667
27744
27781.3
28155.6
28453
28713.8
28924.5
29073.9
29271
30121.1
30893.8
30927.6
31400.8
32267.6
31618.3
30813.5
30583.3
30897.4
30314.8
29431.7
28381.5
5115.36
4288.81
28206.8
29245.8
30194.7
30966.9
31134.5
30689.8
31466
32245
31375.1
30951
30859.7
29945
29212.6
29073.6
28878
28651.4
28428.2
28132.5
27758.2
27472.9
28365.9
28628.7
31085.5
29200
29864
27915.5
31561
17893.9
17144.9
16793.3
18440.7
18339.6
19999.2
20074.2
18590.7
18835.7
17306.4
17574.7
17822.9
18056.4
18237.9
18209.8
18050.8
18139.4
19262.3
21916.8
23375.5
22375.5
22607.2
22823.6
23020.4
21130.8
22917.1
22205.6
21466.3
18732.2
15668.3
15659.3
17422.3
2656.77
3134.92
3108.04
5549.09
0
420.599
3323.56
2925.17
3293.23
17757.8
16306
18845
19071.5
18710.4
21090.2
21180.3
21103.3
20710.1
18877.5
19010.5
19030.3
17968.9
17987.9
18073.2
18206.6
18118.5
18006.5
17839.5
19443.4
19089.8
20441.3
20237.3
18457.4
18362.1
16523.1
16575.1
16733.5
17088.8
17744.3
18578.3
28278.9
31482.7
29724.5
30250.8
28652.9
28751.6
27733.4
27909.7
28286.8
28578.5
28802.9
29000.8
29170.5
29539.1
30410.4
31034.7
31030.9
31745.5
32253.2
31495.7
30898.6
30780.3
31076.1
30713.1
29981.6
29179
28220.1
4308.54
3646.12
27979
28986.1
29858.6
30613.8
31176.7
31283
30876.4
31341.5
32205.6
31816.1
31057.5
31021
30313.3
29441.4
29148.1
28982.4
28770.2
28553.4
28300
27919.1
27568.1
28346.3
28653.5
32156.3
29172.1
31127.3
28212.1
18688.1
17804.2
17117.8
16760.5
16589
16525.5
18375.4
18457.8
20224.6
20413.1
19042.8
19385.5
17736.5
17954
18126
18230.3
18128.6
18074.6
17853.5
19120
19064.9
20204.2
21015.6
22828.6
21283.4
22613.2
20982.9
20841.9
18815.9
16327.4
16839.8
3504.69
2830.83
3376.45
3203.14
5608.48
0
328.102
3520.91
3524.21
4048.25
4367.61
17810.1
17355.9
19279.2
19364.1
18680.8
18817.4
18910.4
19101.2
19076
19052.1
19016.1
19166.5
19224
19231.2
19128.7
18942.3
19603.9
20955.4
20660.7
18786.7
18585.4
16631.8
16503.9
16455.4
16482.7
16577.9
16856.4
17332.1
0
0
31768.6
29532.2
788.585
29027.4
28812.3
27996.8
28169.2
28489.2
28746
28966.6
29183.6
29594.6
30296
30994.3
31114.1
31385.5
32448
31861.9
31154.9
31408.6
31576.3
31279.4
30859.5
30280.4
29596
28795.7
28037.6
3423.43
2938.09
27897.3
28594.5
29471.8
30064.3
30697.6
31250.1
31750.2
32126.9
31159.6
31743.9
32434
31424.7
31129
30920.3
30209.3
29510.8
29137
28935