# vtk DataFile Version 3.0
bernard3D dataset
ASCII
DATASET STRUCTURED_POINTS
DIMENSIONS 128 32 64
ASPECT_RATIO 0.03125 0.03125 0.03125
ORIGIN 0.000000 0.000000 0.000000
POINT_DATA 262144
SCALARS volume_scalars double 1
LOOKUP_TABLE default
0
0
0
0
0
0
0
0
0
0
0
0
0
0
0
0
0
0
0
509.22
516.717
520.946
524.365
527.717
532.857
535.71
110.498
114.463
109.255
114.992
113.996
113.042
120.406
108.156
121.936
87.979
64.4631
0
0
0
0
0
0
0
0
0
0
0
0
0
0
0
0
0
0
0
0
0
0
0
0
0
0
0
0
0
0
0
0
0
0
0
0
0
0
0
0
0
0
0
0
0
0
0
0
0
0
0
0
0
0
63.29
87.4778
100.319
107.615
120.456
120.035
117.413
110.705
109.101
111.745
108.96
113.777
533.666
528.453
525.227
521.766
517.157
510.026
0
0
0
0
0
0
0
0
0
0
0
0
0
0
0
0
0
0
0
0
0
0
0
0
0
0
9.47502
477.336
475.285
473.753
473.452
476.566
485.239
498.887
511.524
520.103
524.925
529.655
534.011
537.564
540.523
542.935
545.46
547.679
548.742
549.387
550.623
106.007
102.122
101.03
100.485
97.1931
96.6791
94.4852
92.4989
76.6192
0
0
0
0
0
0
0
0
0
0
0
0
0
0
0
0
0
0
0
0
0
0
0
0
0
0
0
0
0
0
0
0
0
0
0
0
0
0
0
0
0
0
0
0
0
0
0
0
0
0
0
0
0
0
59.9089
92.6059
94.4977
96.6997
97.0845
100.342
101.569
101.94
105.686
549.973
549.101
548.612
547.441
545.242
543.038
540.852
537.892
534.293
530.006
525.205
520.224
512.128
498.751
485.419
476.631
473.431
473.819
475.283
477.404
9.42284
0
0
0
0
636.398
70.7162
0
0
621.299
42.919
68.5336
0
24.1321
24.9115
487.77
483.851
481.124
481.881
489.82
507.08
522.524
529.639
535.604
541.011
544.853
548.572
551.435
553.096
554.018
555.41
556.768
557.004
556.342
556.826
557.517
556.893
555.013
95.4831
90.2669
82.2762
78.0975
73.1088
56.5112
0
0
0
0
0
0
0
0
0
0
0
0
0
0
0
0
0
0
0
0
0
0
0
0
0
0
0
0
0
0
0
0
0
0
0
0
0
0
0
0
0
0
0
0
0
0
0
0
0
0
0
0
0
0
0
0
56.6579
73.244
78.1452
82.3105
88.929
95.2783
99.4051
555.844
556.364
555.902
555.48
556.182
556.016
554.602
553.241
552.712
550.901
548.394
545.138
541.121
535.813
529.697
522.688
507.93
489.969
481.803
481.039
483.724
487.582
24.7661
23.9942
0
281.779
647.448
608.346
645.218
599.049
621.533
713.697
68.5969
18.7607
37.9397
500.272
494.243
490.243
490.138
502.526
523.386
535.308
542.385
548.45
552.969
556.964
558.977
561.164
562.557
562.771
563.422
563.704
563.33
563.051
562.431
561.536
559.64
557.273
554.099
87.6703
81.1259
69.4053
62.5593
48.6375
17.1984
0
0
0
0
0
0
0
0
0
0
0
0
0
0
0
0
0
0
0
0
0
0
0
0
0
0
0
0
0
0
0
0
0
0
0
0
0
0
0
0
0
0
0
0
0
0
0
0
0
0
0
0
0
0
0
0
17.3684
48.7626
62.6943
69.4546
79.0654
87.5112
553.042
556.064
558.291
560.094
560.975
561.695
561.977
562.408
562.322
561.712
561.545
560.212
558.574
556.595
552.942
548.52
542.461
535.39
523.813
502.991
490.135
490.161
493.76
499.963
37.6709
18.8731
67.9303
683.242
610.957
589.13
606.932
653.772
121.484
11.5699
31.318
511.061
504.913
499.998
497.929
508.648
533.112
544.464
552.392
558.247
562.874
565.61
567.968
568.94
570.314
570.046
570.376
569.856
568.869
567.981
566.712
564.811
562.304
559.581
555.952
551.19
545.684
70.8891
59.5906
42.5712
17.4356
0
0
0
0
0
0
0
0
0
0
0
0
0
0
0
0
0
0
0
0
0
0
0
0
0
0
0
0
0
0
0
0
0
0
0
0
0
0
0
0
0
0
0
0
0
0
0
0
0
0
0
0
0
0
0
0
0
0
17.5368
42.6186
56.7678
65.1205
545.047
550.629
555.427
559.113
561.933
564.341
566.337
567.322
568.351
569.285
569.333
569.115
569.53
568.139
567.399
565.122
562.662
558.226
552.447
544.504
533.538
509.078
497.865
499.768
504.577
510.838
31.13
10.9245
720.832
643.189
599.947
641.798
699.441
116.709
15.1436
0
0
0
0
0
0
0
559.969
566.207
570.487
573.248
574.896
575.607
577.021
576.597
576.447
575.717
574.842
574.457
573.666
573.27
571.005
568.077
563.614
557.323
549.751
541.496
533.027
52.341
16.8372
0
0
0
0
0
0
0
0
0
0
0
0
0
0
0
0
0
0
0
0
0
0
0
0
0
0
0
0
0
0
0
0
0
0
0
0
0
0
0
0
0
0
0
0
0
0
0
0
0
0
0
0
0
0
0
0
0
0
0
0
16.8984
48.6757
62.5439
540.909
548.936
556.126
562.16
566.577
569.734
572.034
572.816
573.848
574.314
575.244
575.729
576.019
575.708
574.656
574.04
572.585
570.245
566.156
0
0
0
0
0
0
0
0
14.2064
315.273
683.901
637.647
673.47
688.238
0
0
0
0
0
0
0
0
0
0
0
0
0
0
581.891
581.884
581.493
583.313
588.837
597.818
604.085
606.853
606.871
603.66
597.381
588.347
577.135
562.818
548.051
533.596
49.9974
13.1228
0
0
0
0
0
0
0
0
0
0
0
0
0
0
0
0
0
900.704
898.234
930.717
0
0
11.6282
4.82583
0
17.8373
0
0
0
0
0
0
0
0
17.9839
0
4.96501
11.7681
0
0
960.088
956.627
946.397
0
0
0
0
0
0
0
0
0
0
0
0
0
0
0
0
0
13.1848
46.0417
532.452
546.843
561.597
576.407
587.634
596.753
603.063
605.606
605.54
602.641
595.628
586.881
582.358
580.989
581.182
581.258
0
0
0
0
0
0
0
0
0
0
0
0
0
0
676.117
664.399
671.255
0
0
0
0
0
0
0
0
0
0
0
0
0
0
0
0
0
609.399
624.209
629.511
630.332
628.266
624.919
620.042
613.222
605.404
597.136
587.662
576.974
563.221
545.292
37.0351
0
0
0
0
0
0
0
0
0
0
0
0
0
0
0
942.398
949.887
957.991
966.981
972.401
971.393
953.696
947.31
907.749
904.971
24.8705
0
21.8554
0
0
0
0
0
0
22.1244
0
25.2229
971.269
957.183
983.01
984.355
975.25
965.941
960.98
954.658
950.431
941.013
0
0
0
0
0
0
0
0
0
0
0
0
0
0
0
37.0672
544.612
563.461
577.544
588.462
597.871
606.246
613.958
620.427
625.313
628.457
630.456
628.764
623.633
607.285
0
0
0
0
0
0
0
0
0
0
0
0
0
0
0
0
0
659.635
0
0
0
0
0
0
0
0
0
0
0
0
0
0
0
0
0
0
0
0
0
649.485
650.659
649.949
641.351
671.245
610.165
594.153
581.642
572.779
564.784
553.585
535.725
0
0
0
0
0
0
0
0
0
0
0
0
0
936.844
941.476
950.545
959.415
973.169
992.427
991.897
934.383
950.488
930.054
925.276
920.308
920.8
49.5475
0
0
0
0
0
0
0
0
49.9532
917.073
952.519
1001.25
966.124
1013.24
1001.71
1001.9
985.663
966.379
949.494
943.117
936.167
932.914
0
0
0
0
0
0
0
0
0
0
0
0
0
535.443
554.263
565.841
573.824
582.4
594.447
609.665
668.198
639.618
647.374
648.547
647.803
0
0
0
0
0
0
0
0
0
0
0
0
0
0
0
0
0
0
0
0
0
0
0
0
0
0
0
0
0
0
0
0
0
0
0
0
0
0
0
0
0
0
0
0
0
0
0
0
635.666
583.39
566.481
559.092
553.222
542.052
0
0
0
0
0
0
0
0
0
0
0
0
937.713
939.156
950.922
967.112
989.858
996.546
955.747
961.816
971.306
972.149
966.529
963.506
951.118
939.178
933.47
0
0
0
0
0
0
0
0
921.931
931.259
944.948
956.942
959.807
965.296
975.05
972.615
972.439
1002.81
987.784
992.564
943.775
933.034
929.19
0
0
0
0
0
0
0
0
0
0
0
0
542.88
554.353
560.233
567.236
583.263
633.58
0
0
0
0
0
0
0
0
0
0
0
0
0
0
0
0
0
0
0
0
0
0
0
0
0
0
0
0
0
0
0
0
0
0
0
0
0
0
0
0
0
0
0
0
0
0
0
0
0
0
0
0
0
0
0
603.97
567.259
553.276
549.654
538.311
0
0
0
0
0
0
0
0
0
0
927.59
929.842
934.721
947.23
968.594
1001.84
958.151
983.455
954.293
897.71
907.906
998.368
994.664
988.792
980.253
959.069
946.261
0
0
0
0
0
0
0
0
936.139
947.786
971.326
984.82
1001.77
986.129
912.589
902.507
898.733
954.288
971.069
1005.84
1048.11
970.264
927.644
923.548
920.206
0
0
0
0
0
0
0
0
0
0
539.416
550.67
554.289
567.347
602.39
0
0
0
0
0
0
0
0
0
0
0
0
0
0
0
0
0
0
0
0
0
0
0
0
0
0
0
0
0
0
0
0
0
0
0
0
0
0
0
0
0
0
0
0
0
0
0
0
0
0
0
0
0
0
0
0
623.003
570.593
549.623
545.398
542.097
0
0
0
0
0
0
0
0
0
920.723
926.59
932.511
946.971
964.702
1009.15
974.726
888.657
889.878
897.721
925.85
921.716
931.067
940.759
1010.48
1003.5
981.624
959.306
0
0
0
0
0
0
0
0
947.072
970.375
1001.06
1017.21
935.272
923.16
918.05
906.489
896.188
885.578
876.997
960.832
1014.76
996.733
965.344
926.779
918.281
914.135
0
0
0
0
0
0
0
0
0
543.408
546.579
550.505
570.499
622.899
0
0
0
0
0
0
0
0
0
0
0
0
0
0
0
0
0
0
0
0
0
0
0
0
0
0
0
0
0
0
0
0
0
0
0
0
0
0
0
0
0
0
0
0
0
0
0
0
0
0
0
0
0
0
0
0
622.334
578.251
546.578
541.495
0
0
0
0
0
0
0
0
847.429
909.886
916.585
920.994
939.182
993.386
1024.22
877.91
878.87
885.147
895.844
909.342
909.518
944.621
951.412
963.517
978.603
1001.21
1000.28
971.169
0
0
0
0
0
0
0
0
960.856
992.393
1017.81
983.513
943.943
942.885
942.598
916.661
908.435
896.964
878.334
870.187
878.576
1012.27
986.861
954.796
919.388
908.008
902.485
858.763
0
0
0
0
0
0
0
0
542.585
547.561
578.317
622.484
0
0
0
0
0
0
0
0
0
0
0
0
0
0
0
0
0
0
0
0
0
0
0
0
0
0
0
0
0
0
0
0
0
0
0
0
0
0
0
0
0
0
0
0
0
0
0
0
0
0
0
0
0
0
0
0
618.422
579.612
544.261
538.309
0
0
0
0
0
0
0
838.201
854.914
916.382
923.728
936.248
968.343
1010.53
879.739
861.192
877.627
907.185
925.442
940.128
944.572
944.037
972.072
974.854
964.423
978.643
1010.37
985.071
0
0
0
0
0
0
0
0
976.225
1010.39
1000.21
964.68
967.043
952.063
950.592
950.695
946.869
932.976
916.558
884.269
866.738
871.726
1035.05
1004.77
946.723
917.096
909.109
936.299
833.499
0
0
0
0
0
0
0
539.326
545.232
579.935
618.523
0
0
0
0
0
0
0
0
0
0
0
0
0
0
0
0
0
0
0
0
0
0
0
0
0
0
0
0
0
0
0
0
0
0
0
0
0
0
0
0
0
0
0
0
0
0
0
0
0
0
0
0
0
0
0
624.154
612.473
572.943
540.813
535.656
536.361
0
0
0
0
511.428
933.231
850.99
911.173
914.211
923.8
986.601
1000.24
881.613
854.244
877.575
920.688
932.543
955.972
974.669
983.973
976.232
964.506
975.592
980.422
985.78
996.858
992.165
0
0
0
0
0
0
0
0
985.467
1019.4
990.625
987.911
985.101
968.607
982.635
984.399
970.439
945.574
922.67
909.308
889.838
863.442
839.157
1020.17
969.429
924.343
908.904
906.452
848.182
932.679
514.394
0
0
0
0
537.624
536.769
542.019
573.643
612.866
624.482
0
0
0
0
0
0
0
0
0
0
0
0
0
0
0
0
0
0
0
0
0
0
0
0
0
0
0
0
0
0
0
0
0
0
0
0
0
0
0
0
0
0
0
0
0
1676.04
981.46
0
0
0
0
0
204.145
671.454
616.516
605.647
566.194
536.752
533.486
533.936
532.291
527.92
524.757
521.503
511.979
1073.39
851.293
903.78
907.478
935.197
1024.84
964.292
842.04
882.21
923.692
920.815
941.709
971.264
997.56
1009.26
1002.53
980.884
980.434
985.298
996.455
976.172
0
0
0
0
0
0
0
0
0
0
1020.14
995.031
989.325
992.538
985.896
1006.71
1005.35
989.347
965.761
933.891
914.428
907.373
892.137
841.337
861.911
1019.82
935.958
905.214
896.03
848.136
1017.56
515.338
523.596
525.24
528.935
534.047
535.562
534.231
538.202
567.662
606.214
616.912
671.292
204.131
191.124
0
0
0
0
978.084
1760.79
0
0
0
0
0
0
0
0
0
0
0
0
0
0
0
0
0
0
0
0
0
0
0
0
0
0
0
0
0
0
0
0
0
0
1923.28
1962.96
1802.9
1261.76
569.882
186.568
0
180.982
181.777
703.418
637.214
608.994
595.842
554.986
532.638
530.766
531.389
530.539
527.17
524.924
521.124
511.075
874.466
978.642
901.559
912.579
965.298
1014.74
846.94
900.147
934.634
933.417
947.71
962.189
972.804
999.138
1018.84
1017.27
994.648
976.239
998.157
992.707
972.79
0
0
0
0
0
0
0
0
0
0
1018.69
981.322
1003.76
976.325
1001.04
1018.42
1012.28
973.568
950.164
935.001
932.742
928.534
925.175
911.516
854.122
947.755
984.234
907.747
893.738
981.408
860.497
513.306
523.587
525.955
528.748
532.544
532.959
531.776
533.968
556.946
597.108
609.432
639.218
703.593
187.452
180.869
175.207
186.445
558.855
1261.56
1810.3
1949.5
1919.04
0
0
0
0
0
0
0
0
0
0
0
0
0
0
0
0
0
0
0
0
0
0
0
0
0
0
0
0
0
0
0
0
1944.84
1998.69
1748.88
996.778
179.337
168.198
167.834
171.496
184.861
685.238
613.585
601.883
583.825
543.476
528.622
527.778
528.208
527.17
525.084
523.426
518.186
507.51
858.289
942.631
882.845
935.379
1002.17
876.918
906.224
929.535
953.951
940.309
927.784
933.395
943.307
974.742
1018.12
1025.16
1001.93
979.488
999.979
1002.81
0
0
0
0
0
0
0
0
0
0
0
0
998.973
976.985
981.967
1007.09
1023.32
1003.58
952.865
939.865
931.744
923.625
920.527
946.677
946.557
916.179
865.035
1002.84
938.739
883.093
980.473
852.869
508.295
520.963
524.911
526.694
529.197
529.827
529.072
529.742
545.538
585.431
602.357
614.529
686.034
185.129
171.454
167.929
168.248
179.617
1005.56
1818.99
2001.45
1956.52
0
0
0
0
0
0
0
0
0
0
0
0
0
0
0
0
0
0
0
0
0
0
0
0
0
0
0
0
0
0
0
57.4963
1830.89
1590.15
884.524
163.038
154.28
157.037
162.67
173.343
693.237
636.794
601.839
592.121
566.854
532.137
524.261
523.772
524.052
522.625
520.673
519.407
512.273
530.56
835.294
869.775
771.656
962.265
982.849
901.877
984.025
966.479
933.603
923.951
930.861
936.654
943.25
952.543
1012.4
1028.73
1006.87
979.572
992.487
0
0
0
0
0
0
0
0
0
0
0
0
0
0
1002.25
982.324
1012.51
1027.54
986.204
949.503
941.535
933.261
927.321
922.126
918.974
958.17
971.388
903.397
882.637
1060.88
881.842
863.211
831.822
536.15
515.403
521.151
522.134
524.592
525.718
525.125
525.346
534.222
569.203
593.358
602.402
640.829
693.776
173.691
162.981
157.022
154.345
163.29
886.74
1593.37
1927.26
0
0
0
0
0
0
0
0
0
0
0
0
0
0
0
0
0
0
0
0
0
0
0
0
0
0
0
0
0
0
0
94.0576
134.443
129.613
131.751
143.103
150.523
150.108
163.131
184.044
665.226
602.452
592.957
577.59
545.545
523.6
519.718
518.619
518.101
516.191
513.627
510.845
501.222
955.221
940.662
851.63
922.726
1014.88
883.13
956.766
961.178
933.206
921.306
925.562
928.84
936.731
945.418
954.231
1003.07
1030.24
1005.09
982.69
0
0
0
0
0
0
0
0
0
0
0
0
0
0
0
0
983.794
1008.92
1029.3
978.705
951.963
941.303
929.284
919.749
917.452
918.812
917.102
964.425
943.461
880.218
1051.67
932.698
853.03
801.117
960.477
504.301
512.855
514.992
518.145
519.717
519.933
520.633
525.34
548.058
579.437
593.563
603.55
667.688
184.488
163.517
150.42
150.773
143.505
132.094
129.991
117.243
94.2293
0
0
0
0
0
0
0
0
0
0
0
0
0
0
0
0
0
0
0
0
0
0
0
0
0
0
0
0
0
59.8505
93.2493
117.492
125.679
128.501
131.014
147.37
153.828
165.718
670.664
603.43
590.455
581.072
558.752
528.064
516.45
513.931
511.987
510.006
507.249
503.656
499.052
486.82
889.781
928.547
890.297
1035.86
998.719
918.485
1018.37
948.529
916.546
918.487
919.126
924.903
937.198
949.089
958.09
1019.54
1025.32
0
0
0
0
0
0
0
0
0
0
0
0
0
0
0
0
0
0
0
0
1027.86
1000.9
956.088
945.72
926.93
913.526
909.245
909.372
914.409
917.804
971.227
928.004
904.242
1117.05
742.792
780.73
1016.35
489.967
501.076
505.064
508.974
511.708
513.307
514.834
517.789
530.714
561.667
582.742
591.093
605.741
672.311
166.377
154.454
147.983
131.55
129.025
126.359
118.263
93.8461
27.6184
0
0
0
0
0
0
0
0
0
0
0
0
0
0
0
0
0
0
0
0
0
0
0
0
0
0
0
25.188
68.0631
67.3372
90.3987
121.509
125.961
137.548
149.213
160.663
664.977
601.943
586.583
579.968
562.83
532.886
515.092
509.271
506.507
503.556
499.981
495.017
489.82
495.967
513.041
829.622
870.085
940.732
1050.25
891.05
991.238
958.604
911.863
914.734
911.111
912.92
923.744
941.249
954.258
0
0
0
0
0
0
0
0
0
0
0
0
0
0
0
0
0
0
0
0
0
0
0
0
0
0
951.975
931.627
911.384
899.421
898.402
904.315
909.879
930.354
911.684
913.293
1071.47
937.872
866.243
811.927
516.311
497.741
491.123
496.805
501.7
504.852
507.724
510.388
516.995
536.479
564.869
581.228
587.495
605.498
667.042
161.26
149.77
138.251
126.622
122.225
91.2303
68.1083
68.8909
25.51
0
0
0
0
0
0
0
0
0
0
0
0
0
0
0
0
0
0
0
0
0
0
0
0
0
27.399
51.1401
56.0158
81.4881
112.812
122.411
132.391
145.827
162.501
652.066
592.711
582.192
575.361
560.67
535.098
514.208
505.661
501.055
497.782
493.02
492.423
496.367
503.7
517.809
542.264
980.721
912.329
1116.74
916.701
950.512
956.849
907.953
0
0
0
0
0
0
0
0
0
0
0
0
0
0
0
0
0
0
0
0
0
0
0
0
0
0
0
0
0
0
0
0
0
0
0
0
0
0
0
0
905.618
949.328
964.407
903.469
1051.51
917.036
964.011
545.693
519.328
505.357
498.22
493.961
494.418
498.954
502.058
506.897
516.66
538.797
562.754
576.903
582.921
595.299
656.515
157.738
141.076
133.197
123.088
113.556
82.2582
56.6666
51.7795
18.6636
0
0
0
0
0
0
0
0
0
0
0
0
0
0
0
0
0
0
0
0
0
0
7.1716
26.1912
61.0845
71.7241
91.9034
104.881
116.788
130.878
141.21
659.319
611.454
582.856
577.487
567.968
554.595
530.207
510.432
501.765
496.98
493.663
494.593
497.159
502.136
0
0
0
0
0
0
0
0
0
0
0
0
0
0
0
0
0
0
0
0
0
0
0
0
0
0
0
0
0
0
0
0
0
0
0
0
0
0
0
0
0
0
0
0
0
0
0
0
0
0
0
0
0
0
0
0
0
0
0
0
0
0
504.082
498.8
495.998
494.969
498.281
503.309
512.77
534.483
557.443
569.861
577.748
584.556
620.641
661.257
142.224
126.829
117.347
105.563
92.6172
72.364
67.0805
26.5157
7.25513
0
0
0
0
0
0
0
0
0
0
0
0
0
0
0
0
0
0
0
17.5035
42.9839
70.3627
88.0583
100.843
110.432
123.649
141.652
651.238
609.83
580.634
576.334
557.931
557.417
542.153
517.885
504.94
498.239
495.506
496.089
497.463
0
0
0
0
0
0
0
0
0
0
0
0
0
0
0
0
0
0
0
0
0
0
0
0
0
0
0
0
0
0
0
0
0
0
0
0
0
0
0
0
0
0
0
0
0
0
0
0
0
0
0
0
0
0
0
0
0
0
0
0
0
0
0
0
0
0
0
0
499.301
497.809
496.821
499.844
507.045
521.297
546.555
559.829
560.809
575.741
583.29
621.15
653.751
139.434
125.771
111.157
101.466
88.6176
70.7821
43.3453
17.6675
0
0
0
0
0
0
0
0
0
0
0
0
0
0
7.0913
0
19.0127
580.401
615.565
629.317
637.823
641.781
643.291
639.274
613.798
579.607
574.031
552.788
560.508
555.365
537.803
517.746
505.77
500.604
498.883
498.47
0
0
0
0
0
0
0
0
0
0
0
0
0
0
0
0
0
0
0
0
0
0
0
0
0
0
0
0
0
0
0
0
0
0
0
0
0
0
0
0
0
0
0
0
0
0
0
0
0
0
0
0
0
0
0
0
0
0
0
0
0
0
0
0
0
0
0
0
0
0
0
0
0
0
498.447
498.962
500.933
507.569
520.059
543.012
557.446
556.329
555.86
573.549
585.858
625.921
642.919
644.814
643.598
125.142
631.209
617.774
593.265
19.1425
0
7.09108
0
0
0
0
0
0
0
0
0
6.93469
134.246
141.702
142.442
146.455
535.576
535.7
539.97
543.337
541.123
549.137
556.903
562.429
556.229
540.289
528.737
521.676
517.764
509.499
503.947
0
0
0
0
0
0
0
0
0
0
0
0
0
0
0
0
0
0
0
0
0
0
0
0
0
0
0
0
0
0
0
0
0
0
0
0
0
0
0
0
0
0
0
0
0
0
0
0
0
0
0
0
0
0
0
0
0
0
0
0
0
0
0
0
0
0
0
0
0
0
0
0
0
0
0
0
0
0
0
0
504.529
506.693
509.171
512.731
526.296
542.591
558.787
565.571
559.574
552.274
544.703
545.948
542.746
538.392
540.124
536.62
119.95
142.374
134.245
6.91587
0
0
0
0
0
0
17.4737
30.416
41.4434
50.9248
60.0101
150.858
153.876
157.827
139.778
142.772
155.555
157.236
163.712
162
164.88
162.256
162.135
160.035
158.962
157.779
0
0
0
0
0
0
0
0
0
0
0
0
0
0
0
0
0
0
0
0
0
0
0
0
0
0
0
0
0
0
0
0
0
0
0
0
0
0
0
0
0
0
0
0
0
0
0
0
0
0
0
0
0
0
0
0
0
0
0
0
0
0
0
0
0
0
0
0
0
0
0
0
0
0
0
0
0
0
0
0
0
0
0
0
160.952
163.57
176.788
166.824
177.207
174.967
175.536
172.09
170.642
159.181
145.55
135.894
149.79
153.38
151.193
148.766
545.743
217.297
203.539
189.563
173.291
3.14878
0
0
22.9975
29.5526
46.3752
57.2669
61.2543
66.4274
68.6733
158.609
164.855
167.502
171.623
173.009
172.387
175.685
176.874
170.171
177.763
169.7
0
0
0
0
0
0
0
0
0
0
0
0
0
0
0
0
0
0
0
0
0
0
0
0
0
0
0
0
0
0
0
0
0
0
0
0
0
0
0
0
0
0
0
0
0
0
0
0
0
0
0
0
0
0
0
0
0
0
0
0
0
0
0
0
0
0
0
0
0
0
0
0
0
0
0
0
0
0
0
0
0
0
0
0
0
0
0
0
169.562
168.216
170.212
168.597
169.647
174.916
172.135
174.482
172.075
165.058
158.335
154.969
157.026
240.96
229.096
217.592
205.51
185.283
146.469
16.7589
0
0
32.8992
36.3128
38.0904
62.896
57.4033
64.55
66.0135
71.1536
76.8647
81.3234
171.639
173.529
175.715
177.139
176.775
176.155
0
0
0
0
0
0
0
0
0
0
0
0
0
0
0
0
0
0
0
0
0
0
0
0
0
0
0
0
0
0
0
0
0
0
0
0
0
0
0
0
0
0
0
0
0
0
0
0
0
0
0
0
0
0
0
0
0
0
0
0
0
0
0
0
0
0
0
0
0
0
0
0
0
0
0
0
0
0
0
0
0
0
0
0
0
0
0
0
0
0
0
0
178.57
179.442
174.577
174.765
173.324
171.453
168.642
165.429
162.526
158.47
241.515
234.179
222.771
224.237
191.909
183.002
30.4974
60.4342
0
0
24.4895
37.0779
29.9808
31.4481
56.4757
48.1506
59.861
73.3984
68.1296
81.258
73.962
80.6116
91.4155
83.4196
87.0682
0
0
0
0
0
0
0
0
0
0
0
0
0
0
0
0
0
0
0
0
0
0
0
0
0
0
0
0
0
0
0
0
0
0
0
0
0
0
0
0
0
0
0
0
0
0
0
0
0
0
0
0
0
0
0
0
0
0
0
0
0
0
0
0
0
0
0
0
0
0
0
0
0
0
0
0
0
0
0
0
0
0
0
0
0
0
0
0
0
0
0
0
0
0
179.107
176.076
174.821
174.185
172.48
171.063
172.78
240.949
241.616
236.181
213.206
208.509
183.065
186.131
134.462
130.213
0
0
0
0
27.847
22.4756
30.5356
41.9186
27.6921
60.4479
37.2719
67.1805
48.1221
71.658
53.4472
74.1952
56.9777
0
0
0
0
0
0
0
0
0
0
0
0
0
0
0
0
0
0
0
0
0
0
0
0
0
0
0
0
0
0
0
0
0
0
0
0
0
0
0
0
0
0
0
0
0
0
0
0
0
0
0
0
0
0
0
0
0
0
0
0
0
0
0
0
0
0
0
0
0
0
0
0
0
0
0
0
0
0
0
0
0
0
0
0
0
0
0
0
0
0
0
0
0
0
0
0
246.636
245.444
235.675
243.397
219.515
234.819
217.255
220.683
190.221
155.661
164.182
147.243
147.634
118.386
105.8
0
0
0
0
0
0
0
0
0
0
0
0
0
0
0
0
0
0
0
481.644
482.529
483.652
486.715
493.883
506.6
515.739
523.556
529.058
532.679
535.861
538.793
546.001
545.706
550.338
555.169
561.492
553.056
549.687
542.233
532.206
500.204
485.522
490.575
497.407
508.793
515.807
518.045
518.141
517.498
514.857
77.0567
75.9147
73.6727
68.1206
63.7949
63.3878
55.3658
53.0014
63.1032
0
0
0
0
0
0
0
0
0
0
0
0
63.5409
53.3614
55.7062
63.781
64.1832
68.4238
71.8868
74.8532
76.5656
516.392
519.123
519.958
519.999
517.7
510.906
499.586
492.511
487.634
502.443
534.768
544.612
552.449
555.911
564.322
557.461
552.949
548.341
548.602
541.006
537.834
534.545
531.422
527.311
522.284
514.01
503.167
493.073
487.993
484.837
481.244
0
0
0
0
0
0
0
0
0
0
0
0
0
0
0
0
105.342
0
0
0
31.389
0
0
0
0
9.93434
11.4245
392.608
393.056
392.447
385.141
385.069
376.837
378.12
378.538
371.481
372.52
373.742
374.752
375.675
524.332
532.08
534.898
538.307
542.493
546.36
546.437
548.019
550.269
553.229
559.639
555.258
546.656
534.287
521.779
509.899
486.815
480.482
484.736
493.967
502.416
507.396
512.17
514.666
514.977
514.547
513.014
510.144
507.557
504.93
502.423
496.853
498.977
495.29
484.343
486.682
81.271
62.5142
59.5428
56.9758
50.6097
0
0
50.9503
57.3081
63.8933
63.0329
81.6795
521.019
514.911
524.562
518.436
512.992
511.559
511.434
510.519
512.838
515.35
517.143
517.804
517.49
515.165
510.045
504.479
496.106
486.958
482.944
489.39
510.805
524.848
539.806
551.382
558.821
565.601
557.835
553.853
550.772
548.727
547.765
545.158
541.261
536.852
534.199
529.467
522.734
511.786
498.684
489.74
486.032
484.455
486.004
487.669
490.326
493.654
496.699
401.557
505.118
11.3698
9.88721
0
0
0
0
222.833
621.302
142.777
0
606.646
35.8149
23.8057
0
0
21.5578
408.517
398.363
396.17
389.349
387.952
380.901
379.992
373.404
375.808
366.924
369.584
371.335
363.386
365.273
366.947
368.293
542.216
545.777
576.541
643.411
670.787
677.702
681.127
683.36
684.337
682.579
677.208
665.781
628.427
500.201
489.445
478.898
481.346
489.037
494.945
501.158
505.887
512.605
516.603
523.027
536.604
884.306
883.607
873.968
876.974
878.367
875.287
869.307
867.374
869.285
854.495
857.672
840.006
862.079
72.1859
61.5701
50.1445
50.5393
62.0419
72.7057
840.475
824.16
846.165
845.165
863.93
864.476
861.371
871.077
873.772
874.026
871.821
875.765
884.536
555.872
532.764
522.831
516.798
509.403
502.866
496.389
489.62
480.716
477.884
487.113
526.416
645.93
670.708
681.063
685.669
687.937
686.921
684.481
681.23
675.908
661.459
599.766
554.221
540.087
542.001
539.317
373.76
372.583
370.732
369.104
376.639
375.453
373.373
382.151
390.743
390.473
399.505
400.767
411.469
409.619
21.4303
0
0
23.7406
26.1114
593.495
607.687
600.147
638.872
45.1818
33.5592
18.3528
30.3119
419.959
410.887
407.517
395.494
384.648
387.421
377.572
376.691
372.082
372.707
367.109
369.671
361.933
364.483
366.385
637.259
675.515
688.026
693.99
694.7
677.795
680.88
682.339
681.651
679.879
675.742
683.088
674.097
663.142
650.597
633.538
478.561
476.637
481.892
484.322
491.357
500.84
516.518
538.036
894.43
897.187
879.018
877.638
873.538
873.784
873.328
876.96
873.464
868.334
871.479
869.146
862.225
860.979
844.23
831.047
819.926
83.6913
75.8588
76.4145
84.2521
815.008
828.081
832.703
856.251
857.791
865.195
866.8
866.373
870.609
874.051
872.491
871.31
869.857
873.188
880.082
876.417
921.225
558.943
525.466
506.28
497.465
496.405
479.053
474.326
577.235
640.222
653.749
666.096
677.623
686.714
678.949
683.077
685.079
685.477
683.639
679.649
674.266
693.309
689.28
677.486
649.289
562.426
373.349
371.342
369.01
366.343
374.292
371.318
379.94
377.28
387.24
396.731
396.029
408.129
418.933
429.732
30.0945
18.1192
33.304
45.0873
625.349
592.397
600.39
43.6106
63.9806
15.4475
28.8891
46.742
423.232
412.895
401.431
397.651
393.444
384.166
375.673
379.806
372.329
375.678
368.841
371.759
677.971
696.897
681.963
694.551
697.867
698.697
698.91
699.301
698.822
696.818
693.834
690.068
684.41
676.378
667.837
658.741
659.202
644.747
569.978
580.676
610.272
604.112
549.591
499.492
527.821
869.991
925.856
872.969
875.12
872.696
873.065
875.441
877.832
877.096
880.173
878.88
881.533
879.845
879.345
880.381
873.428
867.485
848.233
826.308
828.764
89.6113
90.1784
118.249
821.164
838.951
854.84
864.295
875.681
875.316
877
878.479
876.629
877.622
875.711
876.563
873.085
870.151
870.302
872.877
876.777
873.381
879.19
543.554
507.952
535.995
615.7
618.764
621.38
633.905
649.924
662.943
661.36
670.75
679.963
687.91
693.848
697.807
700.53
702.511
702.766
701.767
699.603
697.288
695.229
680.909
695.994
675.29
570.405
377.994
374.7
371.503
379.05
384.045
383.32
392.675
403.068
413.914
423.496
423.974
46.4202
28.7377
15.0971
63.9099
43.4445
592.445
623.332
59.9347
70.9342
22.1599
42.8182
438.611
429.708
419.369
408.447
398.508
389.565
382.244
386.331
380.068
383.926
615.279
699.349
689.766
705.076
718.995
708.273
583.982
587.137
587.555
586.977
585.153
581.814
577.409
571.647
564.547
554.061
538.53
660.401
656.543
648.329
641.26
630.673
608.133
620.626
623.169
496.884
539.365
961.593
930.428
865.384
870.577
872.607
874.84
877.102
878.18
880.006
877.917
876.238
873.276
860.53
855.502
856.885
855.684
879.707
881.615
862.579
848.128
835.742
103.634
104.171
834.668
846.338
854.616
871.166
861.773
848.129
846.633
846.867
856.516
857.897
866.882
874.037
874.691
874.491
875.438
874.085
872.3
870.43
871.021
869.394
950.97
573.549
508.648
625.315
624.75
623.822
636.064
647.708
658.435
657.947
665.458
678.569
550.185
561.871
572.014
578.597
582.963
586.282
588.163
588.024
586.074
578.391
709.633
709.251
706.229
689.257
699.283
623.683
382.789
379.167
385.557
390.659
388.755
397.78
408.047
419.261
430.171
437.79
42.5856
21.6017
70.9188
59.7779
616.188
54.5062
69.568
68.8418
32.1621
57.4348
431.479
427.18
411.048
401.571
401.094
395.4
392.272
386.71
563.926
699.59
716.762
713.035
590.981
597.263
602.028
604.766
606.546
607.108
606.182
603.679
599.938
594.202
586.478
577.572
567.492
557.168
546.668
536.769
522.177
640.873
629.455
629.488
626.02
625.065
488.986
532.91
958.601
954.316
875.402
873.069
875.649
876.137
877.17
873.187
878.268
870.774
866.534
870.482
877.989
883.827
888.644
880.399
872.412
860.313