# vtk DataFile Version 3.0
VortexCoreLine
ASCII
DATASET POLYDATA
POINTS 93844 float
0.363636 0.090909 0.181818
0.459251 0.073407 0.200100
0.556689 0.071790 0.218979
0.654070 0.080507 0.236179
0.749993 0.098559 0.251744
0.842418 0.127776 0.266062
0.927510 0.172264 0.280241
0.994334 0.241688 0.294632
1.025910 0.334934 0.306571
1.031740 0.434037 0.314531
1.024961 0.532752 0.320685
1.011352 0.630049 0.326824
0.991730 0.725287 0.332611
0.962656 0.816006 0.336372
0.910045 0.885570 0.333138
0.840198 0.918903 0.327208
0.768646 0.934631 0.328750
0.698414 0.940135 0.337152
0.627569 0.933089 0.348865
0.552642 0.909935 0.363961
0.475852 0.870745 0.381431
0.401935 0.815774 0.394561
0.334406 0.748097 0.400641
0.275340 0.671115 0.400521
0.227082 0.586115 0.397423
0.193723 0.493207 0.395002
0.178958 0.394739 0.396195
0.187246 0.295744 0.401742
0.221785 0.205175 0.410491
0.279115 0.134461 0.424465
0.347425 0.089400 0.447122
0.417700 0.062550 0.472872
0.488511 0.045638 0.494990
0.559922 0.035702 0.509611
0.632571 0.033989 0.516386
0.708493 0.043578 0.518558
0.788803 0.063745 0.521150
0.871507 0.092865 0.525663
0.953064 0.134598 0.530689
1.023590 0.199375 0.532797
1.068753 0.287185 0.529879
1.096408 0.382961 0.525092
1.116893 0.480668 0.520109
1.134249 0.578977 0.514841
1.150196 0.677509 0.509165
1.166116 0.775919 0.502052
1.182375 0.873845 0.492444
1.189894 0.962576 0.456000
1.186013 1.006989 0.420371
0.673688 0.327282 0.769690
0.732484 0.361780 0.764364
0.784967 0.407663 0.755215
0.827627 0.465074 0.740595
0.854925 0.533413 0.718200
0.849337 0.609102 0.683082
0.773691 0.651584 0.643175
0.679521 0.643865 0.614948
0.593449 0.603562 0.587730
0.531980 0.534292 0.554256
0.510744 0.449997 0.512108
0.534588 0.376461 0.463201
0.590567 0.339701 0.407648
0.653568 0.348988 0.341977
0.698697 0.405761 0.277652
0.695654 0.480466 0.231991
0.657352 0.545041 0.211770
0.603238 0.591628 0.207192
0.541041 0.618988 0.209822
0.475156 0.624298 0.212124
0.411067 0.603048 0.206327
0.358669 0.553403 0.185971
0.332471 0.480920 0.151999
0.344313 0.398488 0.115439
0.396241 0.322465 0.090416
0.477373 0.268329 0.080080
0.572468 0.239765 0.078777
0.671918 0.232711 0.081354
0.770093 0.248558 0.084361
0.850699 0.301286 0.086117
0.877292 0.385880 0.088086
0.865981 0.468133 0.092508
0.837778 0.542188 0.099851
0.798881 0.607687 0.110363
0.752404 0.664503 0.124219
0.700370 0.712812 0.140576
0.643843 0.752469 0.157791
0.583640 0.782969 0.174647
0.520712 0.803429 0.190817
0.456166 0.813072 0.206554
0.390574 0.810262 0.221439
0.323764 0.791127 0.234017
0.257195 0.749818 0.241589
0.201656 0.681020 0.239485
0.170541 0.591874 0.226847
0.159722 0.496383 0.209173
0.162328 0.399609 0.191050
0.178221 0.303128 0.175434
0.213635 0.210686 0.165578
0.276734 0.134066 0.166923
0.363636 0.090909 0.181818
0.363636 0.090909 0.363636
0.440582 0.067729 0.381532
0.519442 0.057299 0.393381
0.601688 0.060233 0.398237
0.687137 0.076877 0.402566
0.773105 0.103339 0.408665
0.857519 0.139642 0.416193
0.937005 0.189571 0.424435
1.002271 0.260774 0.431481
1.042057 0.351394 0.435132
1.062810 0.449033 0.435919
1.073175 0.548413 0.435172
1.077452 0.648167 0.433964
1.076112 0.747863 0.432556
1.065108 0.846403 0.431673
1.017538 0.925467 0.428511
0.941535 0.959685 0.424124
0.863320 0.977930 0.425228
0.837979 0.991912 0.421859
0.883999 1.007063 0.412068
0.425082 0.487401 0.468400
0.407772 0.393055 0.445225
0.440201 0.307282 0.424181
0.510751 0.259160 0.405288
0.592135 0.243796 0.384602
0.678782 0.258964 0.358243
0.760332 0.306235 0.330900
0.816349 0.382234 0.301843
0.829232 0.474491 0.280497
0.810256 0.562750 0.273464
0.773020 0.639486 0.277105
0.722597 0.700907 0.287298
0.661885 0.741872 0.300263
0.595624 0.759671 0.311124
0.528592 0.756377 0.316579
0.462804 0.732123 0.315415
0.399076 0.685244 0.306852
0.342048 0.619050 0.290434
0.298793 0.539086 0.266426
0.273607 0.450755 0.238140
0.269961 0.357675 0.210083
0.296000 0.265732 0.186843
0.361255 0.192039 0.175099
0.452862 0.153947 0.177180
0.551213 0.141702 0.186032
0.650319 0.145266 0.196967
0.748258 0.161620 0.207627
0.842034 0.194511 0.216558
0.920667 0.254535 0.223693
0.958987 0.343959 0.231419
0.961977 0.439890 0.239889
0.947985 0.533442 0.249271
0.924652 0.623361 0.260180
0.893426 0.708484 0.272101
0.850372 0.784224 0.282102
0.791141 0.839548 0.287210
0.723442 0.870961 0.291561
0.655325 0.887031 0.301293
0.589033 0.892029 0.316362
0.524492 0.885404 0.332939
0.460015 0.861964 0.346518
0.392674 0.816585 0.355290
0.327669 0.752015 0.358345
0.271822 0.673627 0.354197
0.228571 0.585962 0.345125
0.199308 0.492066 0.334647
0.185705 0.393867 0.326489
0.191798 0.294410 0.322553
0.225213 0.201489 0.325237
0.287524 0.130958 0.339051
0.363636 0.090909 0.363636
0.363636 0.090909 0.545455
0.429153 0.066994 0.575259
0.493355 0.053353 0.604656
0.557036 0.047564 0.630659
0.620598 0.048723 0.652866
0.684221 0.057302 0.671441
0.747885 0.075619 0.685399
0.810420 0.107473 0.694826
0.869231 0.157271 0.700035
0.920502 0.225877 0.701363
0.962358 0.308670 0.698811
0.997517 0.398803 0.693193
1.029301 0.492124 0.686257
1.058325 0.587163 0.678624
1.082505 0.683814 0.670993
1.087549 0.782778 0.669549
1.026038 0.849728 0.688556
0.933330 0.872669 0.700169
0.834320 0.879531 0.704944
0.734404 0.880636 0.707030
0.634498 0.879351 0.708831
0.534765 0.876531 0.711260
0.435553 0.870439 0.714948
0.337658 0.858306 0.721430
0.243174 0.834013 0.734041
0.160212 0.785801 0.756040
0.106538 0.705446 0.778396
0.081421 0.610764 0.791778
0.072499 0.513598 0.800234
0.075850 0.417518 0.809441
0.092084 0.326199 0.823418
0.123669 0.246933 0.848395
0.168745 0.184765 0.883770
0.221594 0.130630 0.913459
0.280307 0.082952 0.927052
0.343916 0.049256 0.925570
0.409316 0.030090 0.914905
0.474542 0.020317 0.899158
0.538944 0.016493 0.879887
0.602816 0.018186 0.859302
0.666405 0.025415 0.838892
0.729847 0.039344 0.819947
0.792155 0.061895 0.803631
0.851557 0.097265 0.790412
0.904788 0.148445 0.781655
0.947572 0.216135 0.777069
0.979812 0.295595 0.775833
1.006286 0.381023 0.776637
1.031003 0.469561 0.778157
1.054978 0.560412 0.780170
1.076900 0.653434 0.782808
0.626888 0.849319 0.067917
0.561190 0.862290 0.072943
0.495297 0.872728 0.080292
0.429231 0.879455 0.090328
0.363001 0.881042 0.103098
0.296556 0.875617 0.117984
0.229552 0.860357 0.134189
0.162832 0.827866 0.149707
0.109332 0.762000 0.160103
0.089295 0.668599 0.159756
0.088412 0.570819 0.152521
0.095798 0.473211 0.142497
0.109344 0.376256 0.131894
0.131297 0.280268 0.123524
0.167775 0.187896 0.120225
0.225891 0.107585 0.127661
0.308144 0.059053 0.150417
0.400187 0.039343 0.176508
0.495363 0.031649 0.199966
0.592247 0.031574 0.220864
0.689783 0.038018 0.239378
0.786671 0.052055 0.256246
0.881267 0.075921 0.272167
0.969994 0.114429 0.288669
1.038902 0.181889 0.306371
1.067164 0.276570 0.316123
1.070219 0.376321 0.319348
1.061765 0.475686 0.320480
1.047079 0.574006 0.322169
1.028575 0.671229 0.325219
1.005709 0.766789 0.327140
0.967953 0.853839 0.320985
0.901598 0.906408 0.303342
0.828181 0.933295 0.293972
0.756922 0.949936 0.301545
0.690128 0.959962 0.322898
0.628269 0.964974 0.349682
0.570130 0.963838 0.374659
0.506290 0.950431 0.396268
0.435526 0.916815 0.412347
0.362110 0.864900 0.423560
0.290739 0.802579 0.429588
0.225343 0.731510 0.432601
0.172749 0.649112 0.435594
0.140850 0.555586 0.441210
0.131085 0.456774 0.450521
0.141748 0.358342 0.462176
0.174061 0.266093 0.474867
0.227541 0.187922 0.489218
0.293899 0.129419 0.512202
0.363636 0.090909 0.545455
0.363636 0.090909 0.727273
0.425183 0.100685 0.753344
0.487900 0.116849 0.771373
0.550645 0.137532 0.784335
0.612619 0.163175 0.793750
0.673423 0.193500 0.801217
0.732293 0.229444 0.807142
0.788038 0.272461 0.811691
0.838914 0.324116 0.814749
0.882662 0.385389 0.816231
0.917772 0.455598 0.816021
0.943371 0.533251 0.813769
0.956092 0.617362 0.809737
0.934296 0.703942 0.806535
0.851846 0.754169 0.809437
0.753982 0.772788 0.810787
0.654156 0.776630 0.810254
0.554628 0.768108 0.809018
0.457605 0.744835 0.806241
0.367362 0.703355 0.799626
0.292322 0.640490 0.786436
0.243994 0.559187 0.765536
0.231755 0.468717 0.748943
0.254163 0.386439 0.745074
0.301028 0.325142 0.748051
0.361155 0.287166 0.752144
0.426608 0.269009 0.755501
0.493254 0.265924 0.757625
0.559261 0.274850 0.758364
0.623549 0.294220 0.757148
0.684987 0.323607 0.753564
0.742050 0.363504 0.746677
0.792065 0.415659 0.734788
0.831949 0.481016 0.716101
0.856850 0.559989 0.686431
0.841260 0.642218 0.639903
0.758765 0.671012 0.600212
0.666580 0.651848 0.575590
0.583382 0.605663 0.553873
0.518175 0.537004 0.527119
0.483913 0.451571 0.490852
0.494036 0.365796 0.445387
0.556231 0.315886 0.392614
0.641217 0.321478 0.343890
0.715895 0.365556 0.297727
0.753284 0.438064 0.254349
0.742432 0.515806 0.227664
0.704314 0.580956 0.219539
0.652542 0.629642 0.221698
0.592575 0.659928 0.228429
0.526867 0.668564 0.234933
0.451252 1.014166 0.510352
0.521713 0.998481 0.514996
0.509556 0.980740 0.507749
0.420595 0.958153 0.493947
0.332554 0.930170 0.485748
0.245849 0.897678 0.482342
0.162828 0.856859 0.484218
0.093188 0.794392 0.493001
0.057522 0.704322 0.507128
0.046452 0.606399 0.522008
0.046750 0.507485 0.536400
0.055915 0.408958 0.550121
0.076849 0.312573 0.562756
0.118296 0.225188 0.576185
0.178910 0.159934 0.603373
0.242378 0.118779 0.645868
0.302939 0.097279 0.690505
0.363636 0.090909 0.727273
0.363636 0.090909 0.909091
0.429783 0.071479 0.909560
0.496356 0.060243 0.904499
0.562674 0.055176 0.895956
0.628521 0.055320 0.884639
0.693818 0.060836 0.871813
0.758322 0.072850 0.857473
0.821330 0.093395 0.842480
0.881323 0.126130 0.828385
0.933937 0.176476 0.816500
0.973511 0.245145 0.809338
[...]
POINT_DATA 93844
SCALARS sample_scalars float 1
LOOKUP_TABLE lookup_table
0.000000
9.260324
6.045816
5.542629
6.836011
9.951254
18.289396
25.016855
15.439455
7.348495
4.025939
3.676368
6.227056
19.816729
27.434090
14.246286
9.675139
10.375320
11.418960
9.693837
10.032798
9.496991
8.308793
8.101714
9.838632
11.415837
13.538920
16.164949
18.370817
18.431618
12.418813
7.389368
7.620120
8.937493
9.300096
6.896172
5.421083
7.692865
15.569613
20.427616
11.152949
4.261770
1.833657
0.850648
0.826379
1.465937
17.305077
18.412317
0.000000
0.000000
11.114376
12.723370
15.346485
25.492188
50.872375
32.727180
19.587559
22.509222
25.935436
28.672300
31.934877
30.847672
31.081787
33.997189
30.588781
21.578068
17.963867
19.124783
23.946514
26.934978
26.304689
25.630335
26.036606
23.409393
17.766941
12.855641
13.223467
24.024048
39.350414
25.324236
13.176208
10.119407
8.928102
8.007121
7.674602
7.940231
8.602932
9.246818
10.689274
13.491310
16.384060
20.434383
20.577927
12.922759
7.873699
7.846778
11.997710
19.580786
25.296423
0.000000
0.000000
9.949614
10.800189
8.981242
6.163384
6.196345
8.839736
15.329405
18.887928
11.818583
6.108237
3.509615
3.226404
5.609513
24.698389
34.708977
11.736901
17.390749
129.771042
0.000000
0.000000
30.265499
34.111870
23.022099
20.050694
19.344530
22.529408
27.765968
21.557924
15.375505
14.298399
16.639067
18.738897
18.243372
18.285379
16.893785
13.530047
12.724440
12.235092
13.079374
17.688589
26.194613
27.055492
15.939813
9.188251
7.378792
9.850396
17.996935
29.364300
21.341591
10.264754
6.093842
5.611190
9.447269
17.515341
18.123835
12.431256
10.063744
10.009659
14.117922
14.718023
11.610722
10.661769
9.613210
8.939890
9.481973
11.629642
16.711998
22.628664
21.677942
0.000000
0.000000
7.447584
6.563754
6.505176
7.046592
9.159484
11.587111
13.725060
13.296247
10.253576
5.773871
2.593520
1.857937
2.927704
11.666365
46.913181
33.412209
10.742226
3.675729
1.379417
0.954496
2.028447
3.905552
8.158873
16.451963
25.419819
19.291241
9.959393
7.232506
8.598752
13.750571
15.736701
8.374635
12.906775
15.897940
13.867394
8.903974
5.893252
4.852926
4.732717
5.818676
7.649732
11.039472
13.567744
14.208894
10.494488
5.047292
1.676664
0.861619
1.562853
0.000000
0.000000
2.937916
3.912865
4.952228
6.146024
7.985147
12.902220
25.069901
27.856535
12.258759
5.088735
3.621636
5.080874
9.142735
15.611290
24.978168
17.987614
7.416403
4.749328
4.017223
4.494314
5.856184
9.183567
20.618977
29.082750
15.306887
6.723479
3.645991
2.413624
2.756550
11.092547
29.020744
18.689980
14.516087
12.476500
6.856667
5.282570
11.175613
14.708584
10.708479
6.787725
6.514995
10.065091
13.785068
13.318056
11.839175
13.039112
14.974859
15.141003
14.327864
0.000000
0.000000
8.792721
5.784147
5.206427
4.351407
5.062563
6.348848
7.873025
9.124813
9.048111
8.443688
9.704539
22.720150
44.672016
20.593786
8.635813
7.109064
8.638496
11.400902
15.673266
19.604013
22.666079
24.042261
22.673746
20.328951
16.754213
12.881968
10.417957
9.218700
9.008044
9.733610
11.737271
12.915702
14.585087
27.279182
53.233284
30.707647
16.887533
17.143835
21.294415
26.657692
38.446762
36.135117
23.462801
28.317484
33.487843
25.194962
18.199926
16.882900
19.212824
0.000000
0.000000
111.886734
41.311646
4.838574
4.150675
6.516620
16.233868
26.474379
14.990089
6.557896
5.105034
6.904472
13.019176
19.338766
17.906563
12.596592
11.957689
0.000000
0.000000
8.240286
6.004104
5.067515
4.810842
5.740781
7.342378
10.376895
15.055940
16.686493
10.813195
4.351587
1.662481
0.768722
2.515829
13.105832
45.038067
30.363510
8.830997
4.700447
4.501325
5.288724
7.362020
10.818381
14.041302
13.254083
12.253096
17.729826
19.014212
17.991684
15.119008
10.813086
8.003050
6.851601
5.414899
5.070762
4.228552
3.134565
3.242444
3.694062
5.636942
14.302948
35.421715
22.516964
7.808740
4.089405
2.595783
2.041718
1.346975
6.385248
0.000000
0.000000
5.570352
7.825613
11.925801
11.826918
6.948112
5.182323
7.336604
13.329956
17.035957
14.334583
13.349598
14.764876
14.491912
13.637140
11.752405
7.142184
5.441613
5.754864
7.061665
8.700213
11.027390
14.219505
15.665767
13.109883
7.202306
2.969925
1.510254
2.179513
7.647397
35.798996
39.105782
12.588540
7.444685
4.695568
1.919895
1.698120
2.529020
5.328883
11.855427
24.321898
25.074993
12.796306
7.929790
8.493893
12.330464
18.061760
11.757365
8.945250
11.570846
0.000000
0.000000
4.912668
3.535572
3.274886
3.567712
4.943874
9.033897
17.205433
18.301331
7.909243
2.200693
1.399277
1.980606
2.637079
3.616442
3.677966
8.262155
27.622259
21.477434
8.072609
3.380667
3.639218
5.871092
9.674205
11.757500
9.370917
7.584859
11.720016
24.352402
26.387012
11.924893
5.005664
2.441120
1.559218
1.222053
1.479887
2.432285
9.298320
37.165627
31.183481
9.263847
4.259012
3.417645
4.430935
7.132949
10.451125
12.159932
11.006698
9.466122
4.787779
0.000000
0.000000
16.726315
23.507647
25.190374
18.696148
9.744067
5.733264
4.061245
3.256301
2.241666
0.661752
2.238958
11.108918
33.867290
24.495312
7.748611
14.728948
19.498350
11.940717
6.256080
3.354038
2.000467
1.308507
1.651261
1.861410
2.898540
13.151961
38.954239
24.165804
7.502631
2.804492
1.327364
0.822581
1.427110
2.314015
5.530417
15.087540
41.789169
29.315645
6.728144
2.909056
2.076223
2.090783
4.511235
10.868829
18.215883
30.997330
30.588329
13.729176
9.496348
0.000000
0.000000
8.617782
6.513942
5.688271
5.584547
6.815609
8.558228
9.497405
8.214824
5.807448
3.989340
4.525064
11.994671
39.742302
36.429684
11.966323
4.656062
2.984850
2.952472
3.657037
5.019891
7.105448
10.560618
14.013292
14.697954
13.898977
15.517080
18.003067
19.498474
20.291681
17.299404
12.548820
8.898324
6.735952
6.156924
6.747268
8.735251
11.268985
11.858052
9.334668
7.114250
9.245394
23.659687
44.504459
23.540571
9.426691
5.807786
6.047081
7.066330
8.787982
0.000000
0.000000
12.277225
13.142906
23.797163
18.009388
9.644183
5.688960
4.349111
3.554185
2.537673
1.206259
3.077590
12.914098
28.574715
17.896221
13.400885
11.689851
10.389514
9.321521
7.907010
6.277947
6.433583
11.518339
12.297285
11.138763
19.149731
17.642696
8.784069
4.989905
4.011564
4.712600
8.397279
16.058279
19.888920
14.492716
11.351264
11.116130
0.000000
0.000000
5.747093
4.616601
4.481744
5.407982
7.337086
11.887168
16.749355
15.367891
8.348944
3.572866
1.177195
0.412120
0.430693
1.560347
10.469464
49.396206
38.631737
7.345825
2.831928
1.505972
1.040987
0.526747
0.559182
1.733478
3.206623
5.603326
9.354165
14.807135
19.736345
24.368124
17.080299
8.598546
5.402217
5.305186
7.199146
10.537787
12.028196
9.672985
11.299268
14.226789
12.911576
7.339599
4.604195
3.307840
3.360744
4.964082
8.086434
15.064116
21.990927
0.000000
0.000000
31.004223
12.345137
4.719952
2.676203
2.383924
3.165515
5.336856
8.285673
12.689693
26.795994
19.659168
6.347520
2.695297
1.405417
1.231782
1.041926
1.433814
1.469670
2.152223
7.002723
33.599865
39.462856
11.140283
5.292169
3.879089
3.456551
3.226586
2.909864
4.424963
10.965786
19.227577
15.400076
11.037992
9.414965
8.139768
8.397466
10.704673
12.833275
11.459082
9.553392
10.521528
10.802649
9.586998
9.076210
10.299938
13.724973
16.689335
16.719728
13.451333
0.000000
0.000000
6.175079
4.340275
3.794728
3.816750
4.773273
7.240747
12.709454
19.018206
15.698389
8.247812
4.549154
2.566435
1.985442
2.239045
6.115389
29.747965
38.655132
13.502913
5.441145
3.115962
3.451392
3.818135
3.706022
2.518162
1.270416
1.937247
5.452873
16.049635
26.679203
16.795746
7.506292
5.024961
5.369874
8.477206
14.787266
17.799805
15.164297
11.944363
9.643510
8.259493
7.351325
6.845730
6.938281
7.692609
9.125007
10.033504
8.825101
6.512527
4.622580
0.000000
0.000000
23.440311
14.038346
15.243810
25.392456
33.690250
25.002298
17.070997
14.775311
14.288274
15.316870
17.293144
18.718412
19.422928
18.625181
15.991747
13.636067
14.010033
17.138910
20.434355
17.951494
11.124099
6.645644
5.022271
5.186329
7.761518
14.144835
27.140661
26.724524
14.403418
8.515622
6.701244
6.785355
8.634653
11.935168
14.946391
13.495774
11.375322
11.306185
12.434999
13.647363
13.263836
11.391777
9.396428
8.596102
9.111732
12.129934
17.830244
23.884706
21.198610
0.000000
0.000000
7.333929
4.021900
3.295090
3.517305
4.570632
6.792982
13.544549
24.480936
21.607391
11.132787
5.993254
4.267832
3.931339
5.094200
11.335637
23.696686
22.545794
13.105035
9.676135
9.629188
9.713348
8.251239
6.798754
6.692693
8.339624
11.214646
14.120428
16.160986
18.843718
20.178606
18.276409
13.191526
8.223304
5.689959
5.070954
5.740166
7.987753
11.872652
16.087883
14.660786
9.050043
4.963095
3.372491
3.540773
6.341834
20.099615
44.091366
20.098988
6.814343
0.000000
0.000000
17.772402
38.921543
42.775200
16.266636
7.241724
5.541569
8.902517
21.968388
37.547371
35.512840
28.409908
22.359758
20.239941
24.409641
31.134109
33.012707
27.713104
21.413927
19.377886
20.137541
20.416897
22.589283
28.155823
29.144108
21.502958
13.173285
9.662248
10.448036
17.869474
32.510109
31.352257
17.587118
11.853714
10.232046
9.582444
10.112251
10.273911
11.367995
12.286456
14.970484
19.537439
21.968573
15.993954
9.544561
7.690951
9.048633
13.023268
19.230230
22.741776
0.000000
0.000000
16.474955
8.951814
7.358367
9.247731
15.692127
26.685074
22.373974
10.880522
6.058157
5.130264
7.867464
17.011135
21.310453
14.383387
11.579901
12.515028
10.143112
9.271014
11.443497
12.003475
10.925046
9.070407
8.901701
10.296214
14.155019
19.667553
22.932596
15.810195
9.204022
9.917384
10.134809
7.031655
5.534668
5.765820
9.042202
17.504896
19.644192
10.286407
5.060086
2.522200
2.063743
2.210543
13.002415
40.771408
18.925058
115.475578
0.000000
0.000000
4.712641
8.147265
13.530295
21.834911
25.178511
20.935106
18.520124
18.496166
17.389355
14.350038
11.545023
9.485538
8.437896
8.502074
9.300645
10.922290
12.604419
13.753301
13.396300
20.858664
37.239132
30.613522
18.967039
17.435450
14.376456
13.284286
15.375080
23.285097
35.147079
29.423557
20.159145
19.336517
18.827091
25.764248
25.913267
17.494131
13.634765
14.524723
17.773264
18.499170
17.746628
17.723253
15.656316
12.873924
12.286008
11.998613
12.958536
18.166100
26.843878
0.000000
0.000000
17.471531
14.585981
9.786752
8.262796
11.184914
17.510277
20.359297
13.540174
8.359145
7.866790
12.980797
25.402121
25.128092
16.991980
15.289515
11.974819
9.191631
8.276306
7.897645
8.283849
9.988004
13.877692
20.137562
25.334055
22.336298
14.515147
12.557117
10.829820
7.683240
7.284511
10.699819
16.830162
17.855022
11.044286
6.560407
5.451867
8.431212
22.020557
31.036331
15.444175
10.436543
11.666652
11.354752
9.207843
7.227323
5.949001
7.275833
10.590651
14.363577
0.000000
0.000000
30.229374
25.771999
22.005386
17.194263
13.009410
9.724657
9.103815
11.645287
16.552979
17.621477
17.128420
16.592550
15.129167
16.828640
24.116697
27.421360
20.283054
16.834986
15.774433
11.295362
8.428977
9.391282
13.370880
20.724607
28.387131
25.709095
16.786171
11.584289
13.014022
14.320520
13.496506
17.987957
20.509600
15.204573
10.230566
10.804288
17.530607
25.978077
20.703949
15.052482
14.940935
14.594333
10.078644
7.461193
7.981705
9.666865
14.380610
22.047218
27.720463
0.000000
0.000000
9.988614
8.421494
9.231780
11.106295
10.179659
8.983210
12.092772
14.759703
11.311948
6.330198
4.199553
4.804118
11.411626
37.536366
30.788834
11.170838
8.847244
7.944061
5.977141
4.016150
2.823483
2.740312
4.715592
12.152844
24.291607
19.818048
10.459726
8.776911
11.467519
14.281796
14.192815
16.916466
14.033712
10.432734
9.815260
9.031156
8.115516
7.679101
7.504096
7.385489
8.355221
8.568068
7.696257
7.058692
10.389438
32.582962
44.457413
12.762756
4.767811
0.000000
0.000000
9.014279
13.099657
16.047016
15.249744
14.049759
11.899082
11.205933
14.945689
27.374077
29.755327
16.696766
12.396386
12.700820
10.485053
6.164910
6.436204
12.995871
22.397396
23.968330
21.855507
18.424757
13.622242
10.279731
8.062168
7.948680
11.546950
15.194258
14.640816
15.677259
14.564118
10.171966
7.475880
8.974261
18.242565
33.518204
20.822754
10.903925
9.613230
11.164755
11.092033
7.118193
4.965147
7.428906
15.124821
20.777719
18.433184
17.082207
16.563692
13.472721
0.000000
0.000000
8.301890
7.400512
6.854206
7.125933
8.014471
9.282942
10.405315
10.469316
10.718582
18.645765
50.303959
35.877010
13.163663
9.104226
15.321367
33.220779
35.534954
30.234201
24.434233
22.763111
20.244017
23.106213
28.260799
27.035484
22.995558
22.017004
23.443024
20.070297
17.146036
16.756451
16.449564
18.444576
24.818954
29.967606
21.756895
12.539275
9.821028
13.143417
25.052332
31.608282
17.812937
9.610367
7.408250
7.016379
9.132499
12.971854
13.712574
11.978802
12.120260
0.000000
0.000000
13.716622
33.697845
27.153099
11.513515
8.277540
9.102001
10.373576
8.137259
4.770440
4.471331
9.403037
19.843275
21.493277
15.045458
13.686562
14.953420
13.400309
11.848841
10.902717
8.211142
7.091630
7.521935
8.839891
10.849142
12.794455
13.914763
12.974425
8.828728
4.819020
3.120858
4.953059
15.883646
45.037807
25.228569
10.121078
7.288604
3.516024
1.565356
1.742486
4.702446
12.739701
27.251780
25.449726
13.206288
10.506181
13.059590
17.370466
17.959946
14.814349
0.000000
0.000000
6.516109
5.332853
4.550704
3.835379
3.640563
3.851275
5.367683
10.803578
25.176704
25.383268
9.162873
3.208271
1.837282
1.356818
1.388044
7.849655
36.448681
43.421497
11.516287
4.788393
4.012589
4.650506
6.406187
9.363132
12.533894
12.427846
8.915947
10.675438
20.715662
21.410851
17.665319
13.065650
9.828974
7.859526
6.379533
4.748379
3.541492
3.243531
2.906768
3.208698
5.103230
12.869939
34.865032
20.271082
3.804777
1.236539
1.303262
0.736748
0.742041
0.000000
0.000000
2.735808
1.841963
2.349604
3.386800
7.697864
17.416428
27.827499
19.331299
9.223048
6.488153
7.849180
12.652281
14.907306
7.758661
13.458144
16.688978
13.985919
8.913456
5.861469
4.298377
4.165887
5.253297
6.763440
9.950958
12.467565
14.612863
12.670993
7.056440
2.897594
1.572465
1.471134
5.043526
26.454033
43.880459
17.263399
5.968312
3.805137
4.221832
5.661955
8.338612
12.708010
16.666773
16.292791
16.166729
16.575644
16.291403
16.809755
13.930746
9.004030
0.000000
0.000000
5.422385
4.246347
3.447817
3.499167
4.552512
8.219936
17.351295
20.483627
8.581788
1.693042
1.098961
2.137349
2.709205
2.998003
2.592840
10.685682
24.342112
16.010418
6.456068
3.919216
4.089453
9.732095
26.556894
35.764172
28.651302
12.106296
4.105893
1.729522
0.927673
0.819483
1.002687
1.612648
2.671957
8.702968
38.944454
21.546072
0.000000
0.000000
8.402913
5.673850
5.212595
9.562154
15.517552
14.907718
10.724788
9.597798
11.181621
14.454702
15.024750
14.206389
11.825134
8.042835
6.116735
5.480906
5.846670
7.822904
11.016906
14.134658
13.924063
9.212793
4.898211
2.523751
1.835790
2.900701
9.199879
39.795498
42.260532
11.543333
4.300746
2.163651
1.099139
0.267611
0.923021
1.990660
3.462493
6.826047
13.051532
21.738388
23.237656
14.274028
8.731224
7.897073
10.103066
14.424531
17.749294
15.426788
10.496719
0.000000
0.000000
7.462824
6.848308
7.055245
8.083788
9.677517
10.975440
10.310686
8.584693
7.659602
10.423451
27.165846
47.557316
19.750519
5.571653
2.052331
0.895037
0.976386
3.192979
7.127859
13.981381
23.700657
24.890251
18.561453
16.704954
18.440138
18.859573
15.643328
11.782061
9.400779
8.748396
9.559009
11.236013
12.745833
12.992666
13.278520
16.455460
30.427715
40.917095
23.123682
10.813121
6.905523
6.963678
11.289816
22.374279
31.199743
32.298962
28.077015
20.689926
16.896242
0.000000
0.000000
9.548226
8.084661
9.187823
7.918346
6.735370
5.711756
6.464081
9.315825
13.337213
15.305436
16.299328
18.204649
18.775835
16.938774
12.755706
8.808479
6.400614
5.559575
6.496217
8.709916
12.657253
15.760168
13.670314
8.485148
5.199987
4.247454
5.185913
12.885537
35.738682
33.129932
11.510965
5.690234
3.633996
2.486561
1.851289
1.356096
0.577769
1.897233
8.124026
21.194841
30.253315
17.316956
8.561602
6.572144
8.524520
13.570931
18.484535
17.063980
12.375768
0.000000
0.000000
9.373895
6.670915
5.852835
6.601261
8.665897
12.264547
15.550159
13.546007
8.573705
5.221346
3.935919
4.770030
10.663614
33.384220
37.913658
13.103227
5.644551
3.547072
2.544606
1.740463
1.342901
0.601334
1.209337
5.349582
15.357051
30.045753
23.415409
10.950354
6.109745
6.153643
8.965214
15.530031
21.235291
17.315315
11.509288
8.111305
6.910747
5.927546
6.468630
7.409759
9.042941
9.985128
9.817344
8.262558
8.663563
16.718220
45.439014
30.817982
8.534859
0.000000
0.000000
8.989289
9.585952
10.002151
10.492256
11.185759
13.022662
17.269728
21.310724
17.397272
10.233931
6.987608
7.325604
10.183987
15.728678
22.796406
21.731112
11.008503
5.265666
3.482959
3.372839
3.578124
4.597340
6.737000
13.233407
21.967556
18.962132
10.276210
5.497364
3.877473
3.087877
4.292860
10.393414
27.616507
26.254978
12.688341
8.079584
7.299497
7.934418
7.002050
5.015869
4.730068
6.454762
11.257272
15.780197
16.217442
15.751088
17.026138
17.710539
15.694627
0.000000
0.000000
14.113917
8.059660
6.395005
6.745408
9.090013
13.650011
19.063742
17.583590
11.777109
8.548332
8.886438
13.537184
23.774445
26.598717
17.425131
11.096381
7.810626
5.792140
5.093199
7.450797
13.420616
20.409575
23.088743
23.489756
21.495102
16.993183
12.585844
9.657261
8.867095
9.808247
12.633291
16.096802
16.385645
14.520856
12.305861
14.441412
22.266663
30.732395
23.282288
13.042184
7.810575
5.660120
5.382157
8.811734
17.260983
25.392494
27.080370
25.614792
20.889250
0.000000
0.000000
9.437381
13.767371
20.243927
27.696693
29.302111
22.705776
15.094084
11.635435
11.732586
14.283499
19.302029
22.258188
20.905794
18.921923
20.683226
23.840055
23.458685
19.326387
15.066520
11.816416
10.289658
10.317821
12.988549
19.913630
30.418381
29.845594
16.637840
9.273007
7.125657
8.256829
11.962634
19.118788
23.462038
17.886860
11.991596
10.895401
13.480649
19.053051
22.696865
19.554140
15.800276
12.452575
10.283730
8.903599
8.805200
10.637338
15.073337
22.338717
29.031204
0.000000
0.000000
14.811759
8.469117
5.666522
5.581809
7.700974
12.998695
24.176489
26.199865
15.243499
8.883231
6.910180
7.366363
10.308663
15.407507
18.272085
15.154870
12.804937
12.451088
12.449155
11.198586
9.617380
9.096970
9.113501
10.648875
13.313860
18.715635
24.500889
22.308712
12.458451
6.590558
4.682450
4.075734
4.738095
6.114172
9.766398
15.798244
17.755903
11.960094
6.720707
3.837319
3.365983
3.955671
8.846910
30.290430
33.277058
12.024623
5.545422