# vtk DataFile Version 3.0
bernard3D dataset
ASCII
DATASET STRUCTURED_POINTS
DIMENSIONS 128 32 64
ASPECT_RATIO 0.03125 0.03125 0.03125
ORIGIN 0.000000 0.000000 0.000000
POINT_DATA 262144
SCALARS volume_scalars float 1
LOOKUP_TABLE default
0
21.0878
17.1565
15.7482
14.4105
3.09754
2.36506
2.01401
2.33321
3.41496
647.104
636.153
634.625
637.782
629.457
636.114
631.677
629.773
631.22
626.28
627.481
627.347
628.486
623.734
643.104
650.423
654.546
681.151
690.214
716.81
736.12
0
651.284
606.624
546.387
549.036
503.462
521.647
534.384
535.905
541.785
548.761
515.78
547.036
393.569
668.167
644.021
619.884
529.47
543.17
521.888
546.318
592.181
575.357
476.727
494.413
483.587
465.583
445.851
432.107
431.622
303.729
0
0
607.753
611.24
628.858
611.615
615.075
617.821
605.142
614.168
608.44
611.208
611.224
609.269
614.116
610.75
612.988
613.926
611.071
614.812
612.644
610.533
614.433
607.65
608.863
619.199
646.162
652.884
608.092
588.614
641.185
692.354
745.598
40.4948
638.778
541.073
505.86
469.888
478.83
521.424
537.041
545.03
541.505
627.521
499.768
449.403
526.393
519.366
516.846
512.656
510.252
509.307
505.557
505.84
501.939
496.087
489.988
476.355
453.805
435.657
424.065
417.805
415.654
416.402
413.308
491.812
631.848
618.779
626.666
609.734
602.774
597.231
589.076
591.951
587.945
590.954
590.759
588.81
590.448
588.575
588.953
586.292
588.432
587.242
586.571
590.873
591.822
594.976
603.447
613.584
637.772
641.525
599.532
586.485
594.266
678.114
749.001
52.9223
520.162
515.265
473.791
451.172
471.397
507.874
537.346
549.817
603.345
451.428
507.742
502.892
501.736
503.148
503.111
496.134
468.76
386.361
537.838
516.778
489.719
535.128
392.988
395.463
405.514
412.148
412.417
412.208
412.385
417.145
421.139
421.292
40.4013
35.5368
33.1246
31.3011
29.9814
592.711
584.663
583.174
581.98
580.687
579.824
576.679
574.997
570.664
567.896
563.053
559.927
555.842
555.626
561.413
567.473
582.47
596.164
605.506
622.715
636.794
608.384
601.437
618.739
690.033
771.741
25.4369
708.099
540.248
492.712
476.03
479.51
503.526
529.289
537.207
538.999
504.626
492.884
467.308
513.37
509.168
496.161
503.776
504.406
502.239
493.083
490.403
478.66
471.575
474.055
560.776
439.269
410.969
569.53
412.508
425.501
437.14
449.676
469.189
58.0922
51.6102
47.8229
44.5822
41.4751
41.9264
585.859
578.368
578.162
575.073
573.913
570.945
567.203
560.233
554.694
546.839
537.353
528.599
522.757
526.424
539.979
560.648
580.822
591.975
596.232
610.324
638.837
643.18
668.181
700.836
91.814
36.3099
706.775
548.011
532.448
516.573
508.608
508.021
522.527
602.797
507.54
487.956
465.621
484.014
602.353
614.238
613.386
612.218
610.099
601.241
552.657
514.327
507.32
499.7
481.667
479.04
485.541
495.791
560.316
459.77
438.447
460.407
484.004
514.368
68.5749
64.0677
60.6635
57.5076
54.1763
54.2245
52.589
582.187
581.198
578.203
576.665
572.573
566.367
558.92
549.729
539.862
530.166
519.901
508.885
501.211
507.17
531.694
557.728
575.466
585.131
591.323
616.094
662.558
698.092
92.8031
69.9359
52.7846
52.8243
569.002
546.47
530.496
513.762
506.27
515.453
418.925
484.485
468.604
487.149
612.812
625.157
624.002
623.324
622.146
620.43
615.352
608.162
567.985
523.098
517.873
508.372
496.973
492.203
496.866
505.581
606.357
681.996
482.327
507.126
526.753
75.2965
71.1149
71.2608
67.4855
65.2742
62.4117
63.2827
592.341
587.056
583.789
581.323
576.339
570.949
563.761
556.299
551.931
568.042
606.469
609.771
581.144
497.919
511.019
531.739
558.378
574.941
588.506
597.042
640.273
715.821
49.1126
36.3388
14.9911
88.6793
546.446
524.604
515.247
502.508
497.099
508.904
476.343
462.79
338.023
606.851
625.107
622.452
623.986
625.639
626.97
626.278
623.909
619.486
596.65
542.229
529.492
524.249
515.035
506.272
507.895
513.04
530.201
488.502
495.167
523.767
540.138
81.7879
76.0131
74.1007
73.5695
72.4352
70.8899
72.5002
70.4805
596.297
591.315
588.101
583.536
578.009
573.234
573.654
606.502
637.364
646.442
654.717
639.888
561.459
515.86
534.137
543.208
562.717
578.348
599.656
105.93
91.2512
51.5135
42.1837
17.8199
55.009
62.8288
513.043
501.841
492.732
489.224
495.264
468.184
458.798
484.452
632.964
626.476
623.022
625.602
628.837
630.091
630.591
629.936
626.523
602.217
548.537
539.635
535.703
526.312
517.983
517.737
521.765
528.325
525.712
508.084
539.548
541.317
84.0817
78.9951
77.2406
76.236
75.8715
75.1421
78.2761
76.5036
600.462
598.855
594.622
590.953
586.705
589.484
608.196
647.767
659.457
675.656
691.485
696.216
634.041
519.238
539.924
553.331
561.144
120.813
113.858
66.1514
66.342
62.5014
58.3131
18.4088
47.7868
80.2204
502.13
494.372
487.126
489.847
538.292
467.307
508.421
610.925
640.523
630.013
629.127
630.714
631.785
633.485
634.18
633.256
627.859
591.695
551.413
546.648
541.19
529.399
523.642
522.9
525.82
529.885
664.527
514.321
708.272
558.113
85.8624
79.4961
77.1322
76.26
76.4393
76.6122
81.3646
79.8747
598.335
603.654
600.081
596.812
595.395
609.743
645.528
662.324
676.004
696.457
736.471
747.288
668.255
527.68
545.643
559.356
571.898
117.154
91.3969
67.5833
67.8839
33.9313
29.8992
15.9796
46.0484
58.4643
496.296
488.671
486.976
502.216
488.405
473.039
463.836
641.156
642.921
632.964
630.869
631.475
633.059
633.602
634.493
632.566
619.936
573.937
552.272
549.012
542.494
529.836
523.608
524.828
527.271
531.322
463.182
651.492
726.587
140.218
86.9912
78.5053
75.3125
74.8163
75.5583
83.773
82.8387
81.7006
85.7844
602.368
602.702
599.556
605.364
634.375
659.389
673.727
689.585
718.3
762.471
768.078
693.444
532.634
552.681
560.255
571.455
114.279
80.5052
82.833
41.3801
33.4787
24.9052
26.5797
65.7155
72.6487
492.942
489.508
493.375
458.218
487.285
479.574
492.312
655.631
643.688
632.448
629.967
630.518
630.837
631.31
630.798
625.239
597.437
562.709
552.151
549.087
538.986
527.293
523.749
524.295
526.795
531.073
525.97
673.693
526.497
86.9832
88.1314
82.8038
72.1952
71.9512
73.3199
83.3004
83.3615
87.0198
86.2857
601.422
602.153
601.292
606.5
645.297
664.803
679.233
696.587
731.785
771.01
778.673
744.168
536.858
553.186
564.249
570.336
108.056
85.0635
57.3052
53.4902
48.646
35.0815
39.5826
57.8355
61.4135
487.205
493.554
507.164
444.271
482.067
485.567
551.8
660.253
641.378
632.398
629.42
628.195
628.407
628.066
624.28
610.859
575.507
554.62
550.903
547.021
533.765
524.146
523.402
523.777
524.919
528.116
513.895
611.946
593.621
40.2276
88.7449
84.0978
74.4552
73.8434
80.167
81.9276
82.6444
87.6626
86.4636
598.945
601.326
601.5
612.841
652.093
670.156
684.195
704.916
743.053
777.885
791.855
757.178
540.675
553.081
565.195
570.003
111.662
92.5517
64.7752
58.5534
50.7564
29.1113
45.0895
70.8132
72.5865
489.583
495.224
476.375
315.559
482.141
496.889
507.737
659.706
640.098
631.999
628.822
626.67
625.068
619.803
609.991
589.07
562.328
551.337
549.62
543.196
529.6
523.121
521.839
521.823
520.6
96.8595
100.121
603.93
600.989
104.206
88.9207
80.7375
77.0687
75.6489
77.4052
79.8836
81.4414
87.6256
91.0995
595.305
600.151
598.915
609.578
651.895
672.856
685.909
709.795
751.111
797.434
805.47
757.475
539.516
552.596
561.598
564.063
110.352
79.6098
78.365
38.2944
28.3388
33.1402
58.275
75.3381
79.1151
495.443
509.411
463.101
487.529
481.946
493.576
508.905
656.884
639.1
631.542
628.073
624.871
618.767
608.032
588.215
567.824
552.793
549.52
548.07
539.906
525.585
521.559
521.081
518.067
98.4169
96.9048
97.6032
103.569
68.4306
59.1139
89.2795
75.9125
72.2234
71.6779
74.069
77.061
86.758
86.8152
90.5977
592.108
598.69
596.365
606.636
650.961
673.008
686.885
710.706
757.418
811.714
813.313
757.85
539.426
552.254
561.069
554.678
111.323
87.5179
57.5351
49.475
41.5443
32.8441
63.2972
80.7238
83.6301
449.732
429.418
536.439
481.903
482.535
491.748
534.476
655.42
639.105
631.227
627.574
623.245
608.822
592.524
564.838
554.826
549.925
547.783
546.359
535.224
523.958
521.026
519.21
513.01
98.1189
96.7014
96.7702
102.36
98.798
71.7891
88.6057
77.63
65.8934
66.3871
69.4372
79.8709
85.0177
85.8073
89.9794
589.021
596.093
594.278
600.532
652.027
673.07
688.805
713.422
766.833
817.942
828.153
748.752
537.011
550.422
560.647
544.814
106.552
95.2793
66.4815
56.0289
42.4468
34.804
64.8798
86.6947
522.071
494.617
406.735
459.794
482.552
484.16
469.625
553.809
653.191
638.998
632.112
627.314
619.331
596.999
567.629
554.018
548.077
547.019
546.972
543.752
531.832
521.493
520
517.13
102.654
97.6399
96.2521
94.8515
100.824
83.0866
83.0081
90.3528
81.291
66.3365
65.8279
69.5307
79.7651
83.0319
92.1592
89.3176
585.117
593.328
591.516
595.449
643.762
672.061
687.461
714.503
777.108
821.883
830.765
737.069
535.836
548.506
555.363
534.961
114.364
83.6204
81.5267
40.0996
31.0472
37.8317
70.9861
84.2881
471.376
416.884
493.439
485.434
480.295
486.123
459.166
551.221
651.831
639.72
633.1
626.81
616.369
586.507
555.833
545.506
545.067
545.967
546.321
541.054
528.936
520.898
518.671
513.896
100.668
97.1897
95.0251
90.3507
95.2249
49.7184
33.0667
89.5884
75.7916
71.3106
70.863
73.2732
77.0352
80.6659
88.9136
97.1278
581.888
591.196
588.956
591.643
632.941
670.532
685.064
713.072
783.445
817.927
821.524
710.551
535.521
545.13
548.77
122.133
108.253
69.4825
65.0977
57.2512
45.5433
35.6571
70.3159
89.2653
451.151
438.606
474.765
487.934
480.352
486.6
436.698
536.998
649.723
638.384
634.767
627.347
614.14
573.846
547.831
542.826
543.071
545.735
545.125
539.266
526.15
519.784
518.098
509.625
99.5979
96.9713
93.3111
90.8062
85.5769
90.7984
44.9178
91.1256
77.9171
65.8836
66.7416
69.5627
73.6895
84.5757
87.6204
92.1297
579.732
586.379
585.999
586.445
620.103
669.503
684.47
712.024
784.171
812.486
805.376
682.792
534.383
541.449
540.798
122.378
101.643
80.6962
76.6878
44.2479
39.1319
42.9304
74.8968
95.1472
462.45
438.843
477.323
486.943
480.785
486.199
474.573
520.14
648.447
638.452
636.6
628.311
609.625
567.898
544.896
542.16
543.131
545.104
544.301
536.371
524.569
519.234
516.231
503.464
98.6983
96.1586
94.7978
93.6567
71.5601
66.531
48.5826
90.9635
81.7874
66.181
65.9646
68.6533
75.1026
84.3012
86.3161
91.5078
577.486
583.023
581.469
583.057
606.028
665.867
682.862
705.446
778.583
806.668
790.225
656.695
527.525
536.802
530.502
124.635
96.707
98.3055
58.6214
49.3506
36.9786
43.4458
78.628
88.5142
446.486
398.18
442.378
483.68
479.304
485.614
464.426
502.248
647.34
638.642
638.39
629.357
608.439
566.437
542.43
542.716
543.577
545.637
544.061
533.466
523.334
518.821
515.725
500.237
99.8929
97.3812
96.2464
89.1181
90.7738
41.522
28.3557
92.1898
76.3942
72.6693
73.5816
75.1403
78.5546
82.7229
91.5519
90.8111
576.81
576.984
577.084
579.431
592.823
660.31
679.074
701.839
780.374
800.703
742.27
621.281
515.625
531.519
523.672
124.751
107.87
85.8461
82.9884
75.0525
55.2959
40.0758
79.0744
89.6449
91.9651
510.987
475.906
540.894
480.78
483.61
515.359
487.517
644.041
638.195
638.845
630.825
607.502
560.665
543.272
541.935
544.427
546.375
543.552
531.265
521.913
518.578
513.363
498.325
101.592
99.515
95.3713
82.7083
81.8134
77.6943
33.6462
92.6194
78.9103
68.3668
69.9265
72.5893
76.6672
87.9255
90.8609
94.7095
575.788
571.893
570.293
573.283
582.37
653.979
675.603
695.864
763.149
779.684
701.838
539.836
513.536
529.99
524.068
123.266
98.9405
70.4951
61.9442
54.7377
42.9836
49.0662
79.4745
91.1756
91.6881
473.459
497.126
469.799
482.937
481.647
502.076
450.788
633.751
639.819
639.869
631.829
607.435
562.403
546.146
543.352
545.512
546.976
543.538
529.632
521.752
518.079
513.331
495.204
103.341
99.3584
95.0542
96.0903
67.3198
57.9269
39.9769
94.7548
83.9167
69.4678
70.1592
73.133
80.1935
88.4742
90.086
94.4554
573.609
567.664
565.928
566.078
577.153
638.632
672.324
687.797
731.063
741.839
668.238
525.484
516.469
528.306
145.972
125.41
118.191
84.4125
76.9724
66.3244
42.8067
48.2465
80.4253
87.612
91.0697
466.86
476.861
608.786
468.464
479.784
489.857
432.36
547.423
641.342
638.526
633.677
610.982
568.763
547.032
546.353
546.907
547.505
543.642
528.699
520.583
517.127
510.926
494.703
110.205
103.676
101.519
93.4411
96.1273
68.7651
29.3091
95.345
86.8002
77.3218
78.8283
81.0763
84.9016
88.4946
95.8541
99.0091
570.322
565.969
559.07
558.503
570.758
605.27
667.408
682.848
703.314
689.085
598.874
503.488
523.225
527.475
140.132
128.119
113.882
111.576
55.8171
45.3075
59.0028
44.4348
79.337
90.5801
89.5351
102.513
470.229
487.369
434.924
482.597
482.631
498.509
491.871
640.173
639.019
636.86
616.007
569.729
550.659
548.184
548.502
548.742
543.153
529.096
520.916
516.439
509.117
494.027
477.197
108.056
105.734
106.111
89.8138
89.9054
38.7564
98.0983
90.1858
79.4944
77.5531
81.4985
85.2589
96.1634
95.9301
571.695
568.651
565.195
556.646
551.369
562.845
582.176
659.633
675.182
678.509
661.774
529.821
511.066
531.642
533.591
144.257
126.063
98.9453
91.1516
78.3869
63.8286
44.4309
53.2308
74.6787
88.6846
86.6547
104.525
462.738
477.971
473.439
538.091
478.016
483.489
464.77
545.986
640.397
635.171
616.825
571.464
557.314
551.826
550.875
550.265
542.804
529.695
521.413
513.592
503.522
493.427
477.992
464.801
112.42
113.12
111.178
69.17
57.5239
11.6786
98.2871
88.4513
82.3411
92.9158
95.5885
96.6576
101.19
573.716
570.855
566.213
554.223
544.859
553.049
569.111
637.248
663.134
662.126
557.279
505.12
527.978
542.959
162.172
150.554
137.657
112.679
69.0114
56.7108
71.0407
42.974
50.6754
68.9705
86.9342
79.8134
87.1195
464.901
471.492
482.27
484.647
560.278
470.418
456.614
362.61
624.502
637.919
616.47
581.09
563.037
555.943
554.317
552.113
543.628
530.79
523.213
513.402
494.888
481.574
468.527
459.522
550.162
673.277
540.444
556.511
124.983
10.7147
103.893
95.4744
92.3502
95.5788
104.234
103.221
106.837
576.965
576.027
568.562
554.648
541.5
542.204
560.055
585.461
630.353
563.919
510.791
526.96
543.12
561.767
587.311
630.294
151.426
125.663
77.8641
62.54
47.9413
57.7379
47.4673
39.7325
94.0115
66.4257
76.4461
113.892
478.218
482.317
482.469
490.741
501.458
452.586
439.47
494.962
629.484
626.533
592.588
12.6417
11.8352
10.8399
9.52019
10.9729
534.738
526.693
514.103
487.765
469.031
461.142
471.88
612.802
440.946
680.012
501.321
154.335
18.1302
108.434
101.465
104.883
105.623
113.104
109.503
584.194
583.93
581.3
570.21
9.6019
7.34021
5.35368
6.11632
6.85243
7.51904
8.01817
18.8046
20.1291
571.122
602.581
22.5002
22.0753
21.2191
19.8357
18.0754
21.4986
22.1346
49.8836
48.0341
4.73745
91.317
53.1772
89.6408
118.537
121.257
494.635
496.021
495.069
491.199
385.527
447.852
21.2159
15.5367
9.59024
9.44092
8.83051
8.0692
7.07967
6.45534
11.347
12.1327
16.5929
20.0349
488.616
464.905
473.335
648.976
641.709
466.905
474.986
480.343
165.089
0
18.1809
17.4462
16.1754
116.864
117.069
593.66
24.1339
18.5922
16.4437
10.9506
6.94133
6.71881
9.64585
11.1805
0
12.1381
12.1042
10.3567
10.7942
11.2878
19.6917
27.1194
19.8131
19.5706
18.9613
17.5357
15.9222
24.4324
21.7686
58.3788
7.40753
10.8682
16.4469
19.5987
23.8389
27.3671
29.8915
27.9724
28.643
28.9418
21.0908
11.7875
11.7553
11.7534
11.9935
11.9623
0
11.0697
9.71966
8.57212
8.36455
12.8768
14.2816
19.7836
16.4431
11.1535
11.3061
11.3122
11.2679
10.6833
10.2523
10.047
10.2079
0
0
0
0
15.1896
15.0057
14.6329
13.028
12.4143
11.6268
10.7567
11.8354
0
0
0
0
0
11.9525
11.418
9.85473
10.3631
11.3338
12.7227
26.0901
27.9147
29.4522
30.0821
29.3517
27.1235
25.2135
17.9849
8.73614
9.41549
18.213
24.4725
29.8444
33.7615
35.9794
36.7196
25.4836
24.4386
11.4782
10.9757
10.9483
11.3951
11.9255
0
0
0
0
0
11.9135
12.3364
13.2632
13.9999
14.3404
14.5727
14.847
15.1279
0
0
0
0
0
0
0
0
0
0
0
16.4066
16.9448
17.4867
17.6343
17.2264
0
0
0
0
0
7.91939
6.6283
3.06088
3.04748
3.41598
16.8058
20.3305
24.7341
29.9446
35.4773
39.923
41.1929
38.2527
31.583
15.0124
5.79809
6.55954
22.5315
30.8229
35.4275
47.5154
47.5967
44.2841
39.3091
18.1178
15.3675
13.4991
5.45823
5.93273
6.53636
7.69187
0
0
0
0
0
16.9004
17.4238
17.3244
16.7504
16.1296
0
0
0
0
0
0
0
0
0
0
0
6.77569
3.31848
5.33994
8.49921
12.1323
15.0607
15.3476
12.4761
11.5459
11.0543
9.69718
8.51327
7.52749
6.23744
9.18808
8.91358
12.1521
16.9162
24.5589
35.8441
50.0644
62.0726
68.2677
66.4032
61.1862
40.0979
19.3257
2.73824
34.6874
34.4988
51.7581
61.1144
60.323
50.1017
55.9605
42.7273
28.8429
38.6847
24.851
9.72388
9.29706
7.67186
8.94529
8.24891
6.60177
7.00241
5.93957
6.13983
9.41822
9.74661
16.5021
21.7426
5.10933
5.44457
6.62697
8.30742
0
0
0
0

31.7057
23.917
8.60158
6.15936
3.09794
2.80763
2.64649
2.43582
2.35418
2.36405
4.01873
4.38135
5.05777
6.45153
596.238
591.954
594.566
592.575
597.245
602.655
605.538
617.47
626.033
620.752
623.142
609.172
593.932
619.686
649.685
677.592
0
0
0
640.093
511.959
471.54
443.115
444.077
392.959
419.126
474.885
508.72
523.674
500.51
505.15
504.04
505.512
506.677
504.491
505.998
507.486
507.103
506.629
506.97
502.451
489.647
462.508
457.216
460.714
466.513
455.115
444.257
443.457
35.3463
35.194
16.7442
14.7815
12.6214
11.7099
12.3518
11.7237
11.3336
11.1599
11.3385
585.68
581.141
577.375
579.055
574.863
576.846
578.474
579.238
578.059
577.859
580.194
581.918
591.447
612.638
625.944
611.51
578.159
566.309
609.574
667.887
23.3505
0
666.317
521.888
502.441
470.996
430.582
508.266
427.633
505.138
492.089
493.529
493.933
493.281
491.769
491.472
490.906
487.302
486.776
483.744
473.239
478.4
444.994
467.394
476.151
471.637
470.919
458.429
447.828
443.467
443.007
443.634
445.667
453.997
41.5243
32.3368
29.0181
26.2279
26.6458
24.5129
22.4554
20.763
23.4001
566.907
565.844
563.733
564.14
563.9
562.308
561.583
559.762
558.128
555.721
556.066
557.881
558.776
566.275
579.748
608.515
613.901
584.662
572.366
602.519
660.607
37.7809
59.6343
38.5118
534.223
496.915
469.298
436.37
546.24
445.5
493.143
491.27
484.485
483.4
482.646
567.089
363.09
308.2
492.83
491.485
489.98
481.28
482.812
482.175
478.699
476.374
476.103
539.674
434.142
547.736
430.347
448.814
463.114
471.753
580.842
62.1885
51.7331
44.7714
39.8798
35.8572
37.7017
34.4865
31.4084
33.0404
572.768
574.443
567.012
562.587
557.22
552.924
547.894
541.279
534.727
530.334
529.028
531.775
540.635
552.844
561.229
571.973
591.964
603.022
601.948
623.383
648.306
26.6382
14.5251
75.8078
539.176
508.725
490.674
472.494
538.604
483.108
491.308
482.701
479.308
358.463
482.976
568.869
594.689
597.002
590.109
564.012
519.951
504.673
503.335
501.946
495.808
487.532
480.818
480.189
482.483
492.214
581.003
369.626
488.36
521.19
525.629
70.8438
62.5433
54.6325
48.8579
44.754
48.7321
45.3472
41.9741
43.5969
41.8735
592.353
606.517
588.893
578.697
567.336
552.445
552.223
547.052
528.878
509.485
502.335
516.933
535.03
547.425
552.219
555.418
571.016
575.847
561.179
70.8761
33.9416
16.635
59.6125
512.012
517.241
496.729
478.746
574.895
475.922
479.774
475.009
363.799
588.676
615.359
620.829
619.372
616.011
611.321
607.207
601.148
575.257
523.202
512.368
511.53
508.599
498.341
490.988
490.397
496.449
506.776
566.615
626.66
754.732
131.15
69.6467
61.719
56.0651
52.4485
57.0502
56.7359
53.7095
50.8388
53.107
50.8574
578.927
639.152
638.232
636.166
632.846
632.776
633.267
636.367
637.319
619.968
582.695
491.042
511.18
530.165
541.718
546.339
548.86
556.379
84.1561
51.1183
44.0741
14.0836
23.8167
492.519
486.858
478.944
480.586
483.401
479.971
465.599
409.255
572.439
623.547
622.06
617.298
615.803
614.339
613.346
611.709
607.344
585.775
530.721
517.619
516.474
509.066
491.938
488.595
494.041
65.4974
67.4277
74.1132
576.442
602.106
45.433
63.082
54.4579
51.7046
57.4275
57.3748
61.1981
59.627
57.568
60.8669
58.7349
572.73
638.655
653.786
656.078
656.433
660.971
670.191
691.893
736.208
744.273
685.52
565.966
498.916
514.402
530.268
542.717
555.058
83.8848
78.0161
50.9174
40.2273
12.0278
47.3564
74.3761
480.383
478.619
488.811
409.805
466.786
454.357
421.252
618.082
625.324
614.503
612.628
611.932
613.054
613.623
611.513
603.059
553.841
521.908
521.048
517.568
495.523
488.282
495.012
79.2091
74.5763
74.5089
74.1052
82.4224
79.2946
51.8764
50.1904
57.4362
53.3526
53.393
62.3179
62.8743
62.6561
69.9413
66.5071
64.4504
73.0809
615.184
660.306
667.226
671.761
681.671
700.533
744.748
770.012
778.833
765.555
634.976
503.92
518.811
525.785
540.462
89.1884
71.6821
54.1349
51.3875
35.8871
22.4918
45.4965
63.225
478.773
483.222
473.262
472.487
459.464
433.823
555.39
641.225
623.537
612.316
611.02
612.427
612.492
612.502
607.338
572.071
526.831
522.743
523.357
505.022
488.573
493.586
497.647
84.0393
83.1066
80.7534
74.4534
79.3612
60.7245
49.1098
58.88
49.5276
48.1364
59.3582
60.877
62.5644
69.4434
70.3761
69.5748
68.0561
74.3169
591.973
661.866
671.339
679.676
693.994
725.661
764.991
794.263
857.713
809.337
742.745
510.075
524.99
532.732
543.308
83.8887
69.6552
52.9714
25.8313
21.9013
41.664
48.041
489.096
486.987
496.81
427.647
471.489
463.305
392.215
613.174
645.096
625.001
615.443
613.725
612.621
611.55
604.337
564.263
527.204
522.717
524.535
517.268
491.237
490.335
498.578
459.741
94.3009
93.2458
82.9343
77.6052
73.8287
57.4219
20.0992
41.7344
55.2147
54.3307
55.7103
58.0341
63.4849
70.7478
71.4832
71.1835
80.2136
75.5703
582.385
659.463
671.629
681.733
700.353
735.586
783.177
837.034
867.427
880.971
774.341
521.919
532.273
538.861
550.435
85.2526
70.929
51.3437
30.5064
35.2525
48.4503
69.5748
406.868
543.216
398.831
481.848
472.659
471.459
492.506
645.354
650.852
628.863
616.843
614.939
611.739
603.822
563.517
521.745
520.023
523.128
523.458
501.569
488.794
493.726
495.191
509.979
102.187
94.4901
82.5419
83.256
65.3689
60.913
48.4946
51.6138
46.8979
58.3422
57.406
57.5733
69.342
70.3843
71.3481
71.766
76.4826
76.1252
576.689
652.865
670.649
682.813
704.502
747.146
801.26
848.652
835.954
856.05
791.346
566.054
536.527
543.412
552.362
83.1492
73.5582
56.651
30.5019
28.602
56.5938
485.56
463.977
514.024
477.56
478.311
475.299
476.214
418.049
664.908
652.176
634.507
618.844
614.69
608.024
571.807
523.848
517.169
520.258
523.515
516.476
491.226
488.875
496.248
497.313
532.823
638.773
104.616
93.9102
79.2292
78.1677
44.8126
36.0995
59.4507
53.6705
64.8405
65.0345
65.7158
67.2578
69.2383
70.8007
77.1366
76.9249
86.1425
574.355
646.238
670.683
682.405
704.698
756.702
817.945
829.124
814.6
822.346
818.653
604.202
539.263
547.177
551.98
86.6928
62.6445
56.8126
43.3016
47.2847
62.0577
495.642
480.528
482.971
480.377
478.454
479.191
448.716
493.3
672.084
666.94
640.507
620.992
615.758
600.377
530.196
516.015
517.446
520.939
521.718
505.047
488.832
490.844
495.257
554.223
552.258
676.95
434.242
100.793
88.602
70.9727
67.6614
64.311
64.9584
59.2144
59.8582
60.6549
62.1761
64.4342
68.023
76.7525
77.1427
76.8588
83.5075
572.958
640.445
668.68
680.327
706.776
771.078
823.101
812.174
808.468
812.316
867.193
617.056
540.235
548.047
549.429
88.8308
70.3638
47.6509
42.6592
57.8474
67.1516
504.747
487.001
483.068
483.097
481.607
485.793
413.252
585.65
672.476
680.413
650.382
623.352
616.693
583.125
521.552
515.753
518.665
521.259
517.686
496.921
487.848
491.344
493.883
503.608
569.175
690.775
427.066
460.366
83.8042
81.2015
57.3505
55.1463
53.1269
66.8095
66.4848
73.7202
74.3644
75.0338
75.2478
75.7808
76.7203
85.7068
82.5239
572.038
634.029
666.435
677.777
705.638
781.457
813.583
802.903
804.34
810.225
883.417
621.848
541.498
548.899
540.486
93.2123
71.5666
58.8892
55.4071
58.1547
71.4537
512.873
493.549
488.146
484.864
483.158
501.045
401.265
620.382
672.48
698.592
654.038
626.297
617.493
574.471
518.848
516.933
519.151
519.608
511.793
493.668
488.297
492.335
488.714
505.849
586.605
683.484
418.623
527.023
89.4493
76.0753
73.0203
71.3708
60.3038
59.9592
69.9727
70.0063
70.4855
71.3585
72.4567
74.3714
82.3607
81.9072
81.8571
571.541
629.346
665.554
677.416
707.174
784.972
802.223
796.118
799.167
808.865
882.35
619.581
541.415
548.01
530.234
94.1476
78.636
59.2586
55.4624
67.0598
78.2171
519.263
500.014
490.946
487.038
486.689
528.285
445.082
632.432
672.497
709.331
657.471
630.762
617.685
557.491
518.495
517.723
518.776
517.047
506.708
491.974
489.685
493.189
484.904
509.565
593.077
682.384
409.582
522.183
92.5377
82.7646
79.4621
77.6612
66.2561
64.2118
75.2506
75.2919
75.7295
74.8566
69.4564
74.9663
80.8652
81.4281
88.857
573.406
619.721
665.261
675.782
708.814
789.239
789.753
785.604
790.458
806.707
874.871
608.154
540.733
543.725
520.92
92.9148
74.6682
69.884
66.4978
67.7099
98.0624
522.162
502.837
493.056
489.309
490.858
466.558
482.301
641.898
670.942
707.636
657.854
635.18
619.913
554.182
518.893
518.346
518.099
513.666
504.687
491.974
490.941
492.848
482.189
510.191
600.617
523.743
440.384
514.659
495.602
85.6748
82.399
80.8543
55.6758
71.8515
77.0863
76.9754
77.7144
78.5884
79.3793
79.0924
80.1635
80.8596
87.442
574.347
624.231
665.451
675.436
706.6
783.216
776.917
770.865
782.96
804.718
851.618
556.219
538.782
535.869
512.669
91.5087
76.8139
65.3814
62.1009
65.9956
423.699
522.415
503.884
494.757
490.203
496.035
454.328
502.238
646.135
667.943
706.362
662.099
639.28
621.734
553.846
520.442
518.635
516.278
510.659
503.182
494.162
492.893
494.119
481.802
511.226
605.151
491.168
416.035
508.043
490.316
475.926
84.1769
82.8899
63.1819
74.3746
81.4334
83.9116
74.4848
74.9825
75.6756
76.9351
79.1879
85.8651
86.4855
575.372
618.642
666.12
675.522
707.148
775.481
759.162
757.868
776.669
801.207
804.843
536.125
533.536
525.01
507.763
97.6623
71.8885
66.0309
62.1375
74.762
410.737
523.398
504.548
494.91
490.497
497.743
445.928
487.666
643.647
665.716
698.631
662.588
643.09
624.583
554.54
521.852
519.284
515.919
511.528
504.328
497.607
494.962
495.198
481.245
510.132
608.612
476.068
536.906
502.571
485.962
472.881
468.342
472.025
70.681
79.794
82.5249
82.4301
83.4099
79.928
72.3444
74.9289
83.9592
85.2981
93.2457
577.927
616.533
665.778
674.717
708.364
765.919
748.628
747.606
769.395
800.267
772.538
533.466
524.211
515.612
505.299
95.0732
66.0383
59.7089
56.0898
73.1548
440.299
521.621
503.049
493.901
491.262
498.505
464.917
488.402
637.663
664.501
692.628
664.003
645.373
626.948
558.12
523.659
520.141
515.909
512.258
509.11
500.722
496.985
496.521
480.668
508.605
613.331
469.758
455.938
498.134
482.81
471.195
467.637
469.036
77.1597
75.6191
87.6611
88.0863
81.2874
82.1784
72.4527
82.4757
83.5744
84.8914
91.835
579.29
618.073
665.767
674.984
714.311
757.653
736.922
742.863
761.514
798.649
715.311
531.914
519.658
509.892
111.218
92.3274
78.1166
52.2058
48.9315
72.7379
433.643
517.554
500.831
493.195
490.262
496.056
484.645
441.899
622.705
660.79
669.931
664.68
647.605
630.656
558.426
526.751
521.405
517.472
514.891
512.507
505.292
501.057
498.839
483.034
503.004
617.4
445.996
465.12
494.612
480.649
469.819
466.883
468.661
84.1378
78.4892
87.4002
87.5387
87.0053
79.3776
79.8349
80.5224
83.0624
89.9892
101.465
581.062
606.553
665.643
675.923
706.338
754.19
733.774
738.026
760.45
805.986
659.183
518.415
513.943
505.723
110.336
89.3759
71.8356
47.55
60.7574
70.0167
417.449
514.328
496.77
490.351
489.51
492.249
532.8
440.688
538.511
659.15
655.582
664.153
650.063
633.776
567.072
529.347
523.67
520.162
519.076
516.466
511.363
505.275
501.935
485.627