# vtk DataFile Version 3.0
VortexCoreLine
ASCII
DATASET POLYDATA
POINTS 899 float
2.519690 0.548387 0.444444
2.519732 0.597883 0.530721
2.483721 0.647569 0.607727
2.405386 0.681474 0.655582
2.308512 0.681625 0.673153
2.218297 0.642224 0.669554
2.162629 0.563799 0.648948
2.150484 0.469125 0.629888
2.167173 0.376959 0.625551
2.206722 0.300777 0.635401
2.263303 0.253280 0.652822
2.327096 0.233053 0.670962
2.393557 0.231181 0.687978
2.460974 0.241802 0.705128
2.527319 0.264138 0.726116
2.587126 0.302248 0.756484
2.626220 0.363639 0.798923
2.625993 0.446118 0.838846
2.590745 0.531517 0.863738
2.532050 0.607652 0.877042
2.455440 0.668406 0.883163
2.364990 0.707980 0.883063
2.266785 0.720373 0.875711
2.172810 0.694885 0.856950
2.108222 0.625100 0.830964
2.074319 0.535333 0.813052
2.058214 0.440360 0.805080
2.053166 0.345053 0.805189
2.057193 0.252064 0.811202
2.073733 0.165256 0.819876
2.111995 0.095322 0.813542
2.164776 0.062064 0.773787
2.218351 0.050227 0.726215
2.272760 0.046171 0.683623
2.331766 0.047618 0.652129
2.397811 0.056521 0.628179
2.467951 0.073915 0.606319
2.539765 0.101296 0.584144
2.611419 0.140382 0.559934
2.679171 0.193436 0.533467
2.729125 0.269813 0.507050
2.750414 0.364254 0.487721
2.756587 0.463072 0.475525
2.756037 0.562664 0.467549
2.749761 0.662063 0.461329
2.734783 0.759731 0.452855
2.705107 0.849403 0.435474
2.657478 0.910236 0.398416
2.607284 0.936897 0.346430
2.560427 0.947724 0.289600
2.515876 0.949693 0.231027
2.865709 0.120445 0.735074
2.874994 0.210325 0.700344
2.862722 0.307801 0.683885
2.841410 0.405007 0.675088
2.814189 0.501045 0.669593
2.781518 0.595451 0.665434
2.741990 0.687172 0.661273
2.693002 0.774005 0.656614
2.628026 0.848499 0.651060
2.546325 0.896557 0.633276
2.461408 0.920428 0.606361
2.379566 0.928918 0.580025
2.302791 0.924935 0.553126
2.232792 0.908913 0.521204
2.169379 0.882864 0.480359
2.112969 0.844546 0.430945
2.071734 0.782219 0.381081
2.053097 0.692806 0.350728
2.047557 0.594262 0.342697
2.047069 0.494690 0.348894
2.049316 0.395882 0.363797
2.056955 0.298236 0.383655
2.079710 0.204054 0.405409
2.140454 0.132321 0.416448
2.223213 0.102794 0.408176
2.308366 0.093142 0.397423
2.395666 0.098914 0.389617
2.482541 0.123230 0.382707
2.564215 0.167907 0.374548
2.634489 0.233577 0.364345
2.686335 0.317117 0.352846
2.721693 0.409869 0.342302
2.746819 0.505963 0.334451
2.764092 0.603566 0.329739
2.771060 0.702063 0.323862
2.758434 0.796420 0.303288
2.717754 0.856153 0.248465
2.671510 0.869258 0.181302
2.624143 0.856894 0.123422
2.573419 0.829741 0.082246
2.521968 0.792493 0.056801
2.473538 0.746087 0.042750
2.430656 0.691185 0.036761
2.395267 0.628706 0.037673
2.369994 0.559900 0.047189
2.360642 0.488904 0.074010
2.380382 0.438493 0.134045
2.421049 0.434743 0.210671
2.462338 0.459501 0.287218
2.496964 0.499707 0.364522
2.519690 0.548387 0.444444
2.514320 0.504238 0.486014
2.524888 0.554283 0.570973
2.497234 0.608604 0.646827
2.428138 0.653308 0.696942
2.334666 0.671240 0.719702
2.237850 0.652658 0.718979
2.163503 0.592115 0.696204
2.131846 0.504420 0.666815
2.131184 0.410566 0.648832
2.152795 0.322264 0.645145
2.195776 0.252151 0.653218
2.254458 0.210509 0.665997
2.319196 0.193255 0.677910
2.386474 0.192094 0.688102
2.455276 0.202705 0.697306
2.524371 0.223963 0.708087
2.591013 0.258125 0.724905
2.646475 0.312341 0.752232
2.670078 0.392458 0.786791
2.654001 0.483310 0.813191
2.611046 0.569771 0.829484
2.548763 0.645644 0.838645
2.469965 0.705422 0.842024
2.378659 0.744431 0.839424
2.280860 0.759379 0.828404
2.185319 0.745723 0.804479
2.107603 0.693990 0.770753
2.062027 0.610050 0.744255
2.041598 0.514083 0.730825
2.033663 0.415901 0.726403
2.032819 0.318213 0.729318
2.039161 0.223345 0.739026
2.060123 0.137349 0.750552
2.109487 0.080729 0.728562
2.164866 0.057304 0.681578
2.223135 0.043179 0.639086
2.289713 0.035638 0.609520
2.362399 0.038092 0.585954
2.437454 0.049988 0.564078
2.512825 0.072382 0.540467
2.586847 0.106904 0.512378
2.656423 0.155244 0.478676
2.712782 0.222668 0.441402
2.746497 0.309689 0.408983
2.766918 0.404524 0.385532
2.782711 0.501714 0.368584
2.796217 0.599948 0.357281
2.805726 0.698775 0.347859
2.806494 0.797109 0.332869
2.789506 0.881919 0.289739
2.761820 0.916487 0.212496
2.820849 0.056294 0.761692
2.862431 0.107789 0.705292
2.870145 0.195165 0.665427
2.857638 0.292097 0.646916
2.837703 0.389452 0.637197
2.813240 0.486167 0.631087
2.784314 0.581746 0.626405
2.749649 0.675383 0.621700
2.706622 0.765205 0.615320
2.648724 0.844939 0.606907
2.572608 0.898804 0.588362
2.493396 0.925158 0.561261
2.418634 0.935112 0.534055
2.349515 0.934247 0.504959
2.286022 0.923429 0.471645
2.227075 0.902896 0.432318
2.171712 0.871592 0.386797
2.123623 0.823339 0.337500
2.092454 0.746599 0.297920
2.079818 0.651348 0.282066
2.075580 0.552360 0.283396
2.075016 0.453425 0.294572
2.080137 0.355183 0.311568
2.098159 0.259252 0.332024
2.148354 0.178130 0.350394
2.230636 0.139083 0.355215
2.319522 0.129918 0.354181
2.410473 0.142339 0.354167
2.498290 0.177431 0.354519
2.576867 0.234181 0.354860
2.639666 0.310544 0.355541
2.683177 0.400199 0.356816
2.710734 0.495831 0.358742
2.725765 0.593706 0.361845
2.726836 0.692131 0.362113
2.705777 0.785246 0.348049
2.656747 0.847612 0.306680
2.601881 0.869925 0.250913
2.550488 0.868032 0.195817
2.501453 0.846639 0.148999
2.454784 0.808477 0.115383
2.411257 0.758956 0.095126
2.372504 0.701189 0.085701
2.340633 0.636678 0.085574
2.318792 0.566565 0.096251
2.312531 0.494800 0.123882
2.331469 0.436217 0.177698
2.376570 0.415250 0.250844
2.429636 0.428489 0.327118
2.478288 0.461130 0.404863
2.514320 0.504238 0.486014
2.505220 0.478441 0.534027
2.518379 0.525986 0.616546
2.493662 0.577939 0.688544
2.430495 0.623721 0.741063
2.340304 0.648558 0.767448
2.242304 0.638715 0.768038
2.163366 0.584778 0.744750
2.125960 0.500768 0.714149
2.118424 0.409064 0.692977
2.132524 0.320892 0.683863
2.167771 0.246911 0.685697
2.221723 0.198283 0.692811
2.284661 0.173818 0.698731
2.350916 0.166485 0.702500
2.419038 0.171077 0.704865
2.488473 0.185770 0.707462
2.558329 0.211082 0.713045
2.625261 0.250728 0.725188
2.677962 0.313699 0.747166
2.693537 0.401770 0.772299
2.672637 0.494979 0.790450
2.628917 0.582422 0.802440
2.567014 0.659226 0.809705
2.488767 0.720177 0.812136
2.397884 0.760590 0.808838
2.300550 0.778520 0.797265
2.204188 0.772787 0.773046
2.119484 0.736018 0.737682
2.063257 0.661769 0.704927
2.039122 0.567270 0.685116
2.030428 0.468686 0.675270
2.029165 0.369742 0.673765
2.033781 0.272338 0.680245
2.047726 0.179902 0.693320
2.088028 0.105967 0.696732
2.147925 0.070057 0.662648
2.210422 0.050971 0.623593
2.280827 0.041375 0.596027
2.356082 0.043177 0.573962
2.432808 0.054996 0.553357
2.509450 0.077977 0.530962
2.584624 0.113620 0.504662
2.654800 0.163741 0.473117
2.711169 0.233341 0.438605
2.744663 0.321417 0.408565
2.764930 0.416687 0.386730
2.780325 0.514110 0.370841
2.792970 0.612502 0.360128
2.800811 0.711419 0.350902
2.798600 0.809138 0.333783
2.777366 0.888377 0.285540
2.807055 0.015323 0.816494
2.863522 0.042600 0.757110
2.890988 0.099465 0.693992
2.886153 0.189514 0.656956
2.869292 0.286195 0.640160
2.848026 0.383359 0.630778
2.823362 0.480051 0.624694
2.795312 0.575891 0.619919
2.762394 0.670155 0.615026
2.722481 0.761472 0.608714
2.669560 0.844927 0.600997
2.597055 0.904019 0.581800
2.519664 0.932883 0.551573
2.446570 0.945280 0.522195
2.379241 0.947470 0.491326
2.317744 0.940885 0.456487
2.261318 0.925567 0.416002
2.208730 0.900512 0.369788
2.160622 0.862850 0.319295
2.122762 0.801724 0.271819
2.102541 0.714686 0.243593
2.093766 0.618332 0.236208
2.090096 0.520502 0.241042
2.091367 0.422532 0.253072
2.102389 0.325225 0.270196
2.136092 0.233992 0.290210
2.209822 0.174585 0.304757
2.300913 0.156976 0.310667
2.395123 0.167900 0.315403
2.485100 0.204277 0.320280
2.563954 0.263202 0.326030
2.625499 0.340923 0.333569
2.668042 0.430440 0.343237
2.693774 0.525436 0.354199
2.704299 0.622691 0.364881
2.695332 0.719551 0.368094
2.657605 0.802785 0.350196
2.599028 0.847359 0.309048
2.541059 0.860314 0.260719
2.487678 0.852938 0.213269
2.438998 0.825914 0.172570
2.396033 0.780475 0.144468
2.359370 0.722725 0.130186
2.329317 0.657559 0.128403
2.307748 0.587674 0.139374
2.299599 0.516463 0.167530
2.312970 0.455015 0.219819
2.352941 0.422484 0.292675
2.408049 0.422666 0.371387
2.462768 0.444081 0.450811
2.505220 0.478441 0.534027
2.496110 0.452904 0.581806
2.511840 0.497114 0.657858
2.492585 0.546120 0.728794
2.434975 0.593504 0.783857
2.348150 0.625099 0.812367
2.249719 0.622994 0.814753
2.167561 0.573519 0.793533
2.126775 0.491310 0.764831
2.115510 0.401308 0.743972
2.125295 0.314278 0.733438
2.155827 0.239717 0.731766
2.206000 0.187723 0.734907
2.267212 0.158640 0.736062
2.332514 0.146458 0.733425
2.399685 0.146493 0.728755
2.468424 0.156597 0.724223
2.538526 0.176360 0.721771
2.608402 0.207893 0.723482
2.672877 0.257743 0.732685
2.712639 0.336719 0.748747
2.710651 0.431880 0.762792
2.681279 0.525284 0.772714
2.633657 0.611741 0.779805
2.569097 0.687027 0.783716
2.488550 0.745424 0.783655
2.396128 0.782323 0.777964
2.298636 0.797306 0.763426
2.203123 0.790819 0.736717
2.118668 0.757722 0.699412
2.060754 0.688083 0.662515
2.037283 0.594622 0.638054
2.029872 0.496010 0.624935
2.029455 0.396615 0.621591
2.034533 0.298327 0.627337
2.047855 0.203854 0.640855
2.083372 0.123078 0.653088
2.147184 0.078746 0.631575
2.216485 0.056686 0.600592
2.291770 0.048888 0.576770
2.369650 0.053094 0.557156
2.448125 0.068108 0.538176
2.525821 0.095248 0.517129
2.601156 0.136188 0.492400
2.669551 0.193123 0.463408
2.719524 0.271016 0.433402
2.747562 0.363219 0.409013
2.764862 0.459998 0.391557
2.777673 0.558205 0.378852
[...]
POINT_DATA 899
SCALARS sample_scalars float 1
LOOKUP_TABLE lookup_table
0.000000
21.673206
31.783161
28.901352
26.624067
32.339756
27.475016
19.450247
19.454863
23.194262
21.805233
15.469265
10.244996
9.656080
14.579444
23.367636
29.051859
23.418983
16.535301
14.530454
15.217485
16.949179
23.134113
31.483223
22.030565
12.421622
8.146421
6.597339
8.497268
20.552660
39.001984
17.877584
6.977129
10.970973
10.095471
6.620425
6.698405
7.441125
9.065380
17.985203
20.469229
9.970325
4.577185
3.438776
5.262241
10.992217
24.094204
25.862665
12.656412
7.187608
0.000000
0.000000
17.056507
6.810773
3.938257
3.349307
4.221553
6.116864
11.663089
19.733959
15.668157
9.365148
8.569191
10.339459
10.798239
11.146008
18.419538
24.713293
16.077194
8.721185
5.254863
4.251740
8.987365
26.943390
32.383816
13.208440
10.394873
11.835579
13.013551
14.351843
15.034364
10.905930
6.376798
4.946409
6.019755
14.511930
34.537663
32.105228
19.110580
17.267403
15.329560
12.513688
10.680929
10.163918
11.469769
17.965803
35.944557
37.187080
18.368963
10.285662
8.825301
0.000000
0.000000
23.184010
29.749815
27.010101
25.608196
30.865562
30.127562
19.973953
16.432781
19.426994
23.336754
20.118109
13.826342
9.719520
8.307210
10.713275
17.847914
27.433636
25.768625
17.196701
13.533710
13.822854
14.467244
15.201891
18.194296
25.096695
26.856979
17.875248
9.028611
5.943661
5.962660
9.935174
36.024811
31.488392
7.922361
13.083947
9.784080
7.022862
7.263986
8.360155
9.567497
14.220187
17.862648
10.290022
4.776801
3.544808
2.560173
5.969199
21.041210
38.515018
0.000000
0.000000
32.471558
18.079969
6.621579
3.340761
2.764280
3.473220
5.360816
10.431018
19.595636
17.657473
10.398543
8.288871
9.279553
9.592164
9.172048
12.662068
22.084808
21.268860
11.341786
6.058675
4.691686
7.788958
20.710243
33.525909
19.838928
13.679082
14.007268
14.055441
14.730453
13.548165
9.819867
7.372912
8.270207
15.820807
30.726662
28.629244
17.422678
16.401474
17.549023
14.836158
11.855527
10.718729
12.261267
17.403620
27.961979
33.682636
22.046146
11.795433
9.768694
0.000000
0.000000
24.133400
27.022438
25.940664
25.929258
31.620575
30.743902
19.352076
15.345364
17.843332
22.860312
20.705318
14.992018
10.237889
8.087647
8.255855
11.588625
19.959772
28.816793
22.596340
14.262125
12.555309
13.492862
14.327492
14.312206
15.493752
20.304626
27.602926
23.332151
10.857285
6.451845
5.804985
7.164590
20.709414
40.865425
13.187994
12.714791
9.918534
7.264013
7.693273
8.529287
9.954139
14.501038
17.473852
9.886224
4.581548
3.408811
2.904747
7.396772
24.168472
0.000000
0.000000
27.332403
32.691082
14.209506
4.959620
2.727926
2.136891
2.933849
4.428371
8.789480
19.590065
19.895494
10.229086
7.743265
8.555359
9.340098
9.056532
9.835833
17.288961
23.112694
15.258895
7.812309
5.070916
6.364640
13.674503
30.501907
28.206051
17.544060
15.379627
14.741541
14.856191
12.964702
10.237063
8.926188
12.229982
22.998487
32.042091
22.598972
15.739396
17.254593
19.278522
16.201488
12.850897
12.513104
16.478292
24.322309
29.648937
22.336020
12.417875
10.540439
0.000000
0.000000
23.156937
26.386068
25.834665
26.151356
32.698738
31.796030
19.089685
14.664644
16.793312
22.015100
20.653212
15.195182
10.716360
8.316565
7.590704
9.124986
14.348179
25.575756
27.607590
16.341486
11.471107
11.893417
13.634822
14.535420
13.926717
14.286088
17.873547
26.661734
25.578375
11.711557
6.931492
6.161379
6.909299
15.556336
38.967041
17.847589
12.351284
9.290518
7.555047
8.236615
9.109511
10.932973
16.676523
15.604856
7.809494
3.839512
3.046904
4.419161
12.847812
0.000000
0.000000
19.078646
38.531708
21.636475
6.515055
2.503896
1.767797
1.883879
2.660946
3.916817
8.805289
23.569378
18.634867
8.646655
7.154972
8.300802
9.230396
8.489869
8.934657
14.572836
22.488543
17.270773
9.160042
5.554039
5.833614
10.114060
23.820707
33.914017
22.352674
16.630905
15.477765
14.893586
12.761474
10.689274
10.454720
15.994066
28.393459
30.728304
20.025219
16.037437
18.650005
20.700033
17.769257
14.997297
16.308121
21.506460
25.560272
21.777809
13.436248
11.462174
0.000000
0.000000
23.748714
28.119099
26.722914
25.703163
34.819099
33.488789
18.227777
14.285671
16.574852
20.708391
19.560780
15.071958
10.635302
8.300045
7.386631
8.121997
11.609109
22.305664
29.668573
17.556574
10.375682
9.892170
11.899678
14.479651
14.878112
13.477147
13.627809
15.985227
25.757708
25.871817
12.285623
7.869010
6.466265
6.594217
14.525621
35.225838
21.888691
12.219000
8.841135
8.113265
9.101570
10.228181
13.770556
17.771429
11.713963
5.560174
3.446794
4.284869
10.001797
0.000000
0.000000
2.718870
13.593472
109.448463
35.062473
9.370309
8.002853
8.227051
14.122613
21.457859
16.967270
9.358535
5.801505
5.807010
8.693189
18.323221
34.586578
27.415562
17.927744
15.973193
15.099854
12.918651
11.151025
11.497078
17.852882
31.546741
30.475773
19.945581
17.208618
19.786303
22.226112
20.278740
18.333126
19.785545
21.256222
20.755758
15.203531
13.307542
0.000000
0.000000
26.685598
32.316589
27.071842
26.397871
39.591881
32.032612
16.815483
14.376291
16.703362
19.439518
18.675915
13.587121
9.565813
7.279015
7.104095
7.929394
12.180813
25.019392
28.584923
14.405999
8.708247
8.507709
10.428867
13.568516
15.223365
13.989508
12.655258
13.087958
17.533747
29.115765
19.389091
9.861908
7.255446
5.898406
6.819493
19.019976
37.846119
17.807756
10.670919
8.469744
8.637882
9.696473
11.159921
15.609146
15.107089
8.102587
4.230359
3.370575
5.199008
0.000000
0.000000
4.637599
43.230972
109.902985
9.925115
8.473268
9.180036
15.455880
19.821936
14.159822
9.025390
6.729893
6.710778
8.294248
14.927710
32.096897
31.926180
19.587650
16.616320
15.223651
13.249628
11.357128
11.997775
19.026451
33.524651
29.991373
20.288000
18.625963
21.837196
24.658613
22.402557
19.038588
19.751760
21.343243
15.023722
15.400281
0.000000
0.000000
33.827389
36.363010
26.461782
33.389706
44.185707
23.630413
16.152321
16.256367
17.782970
17.924648
14.536211
10.113574
7.741263
7.384825
8.156442
11.980135
27.062145
28.606178
13.355704
8.797924
8.084904
9.237971
11.534455
13.525624
13.567293
11.247767
10.427000
13.149348
26.838953
29.767368
8.685978
4.739749
4.886718
5.092853
5.244263
13.279085
55.112904
17.795000
18.766611
0.000000
0.000000
5.859931
4.253076
5.172635
7.049070
7.307396
8.814878
20.097666
24.358538
11.494491
4.949774
3.383156
4.537255
8.617918
16.955410
23.402180
14.570310
8.213412
6.778473
7.648218
9.238057
13.174545
17.664341
14.496058
10.399130
10.104605
10.031524
9.218637
9.241694
14.082246
30.424376
35.837059
22.173384
17.534382
15.254120
12.724857
10.725686
12.611130
22.608032
33.731956
27.088329
20.536398
21.181044
25.635899
26.218655
21.642532
21.293934
19.046186
13.222229
15.818691
0.000000
0.000000
45.867966
38.638912
30.196152
49.837170
34.640831
20.573252
18.109184
16.984919
15.125006
12.296435
10.269448
9.689191
7.240775
10.728419
31.783764
25.303406
11.136075
7.585583
7.657245
8.252858
9.065965
13.166587
17.845997
11.578368
6.974317
7.776475
15.178821
39.345303
28.336664
6.125639
1.727484
0.390170
0.738870
0.865471
0.962865
11.719143
50.683590
0.000000
0.000000
7.345211
14.201978
35.894150
25.163013
6.277261
9.745056
10.016298
9.513865
10.082546
12.596654
18.027262
16.376116
7.854329
3.896265
2.825770
5.053616
13.994817
31.751072
25.761057
12.716157
14.211133
15.896294
12.348410
9.279363
8.991190
9.402034
10.558774
11.763498
11.976843
12.822738
21.011026
45.190731
38.145950
21.640827
14.254249
9.401385
9.329339
12.916084
23.354370
32.127632
25.487028
22.024782
26.552971
31.871485
25.750904
19.680952
13.518789
14.646045
15.855295
0.000000
0.000000
63.854221
41.642574
59.914536
46.568344
24.776794
18.311747
14.516292
12.507035
14.190210
5.998813
17.214054
32.908844
20.287546
9.141747
5.751627
5.150428
7.092737
10.845005
12.788531
21.015095
12.994580
7.212378
8.664265
20.223665
35.976185
19.314022
7.114995
2.743453
2.972955
2.680441
1.179520
0.923445
2.072071
13.660383
0.000000
0.000000
21.903582
43.924976
16.714800
9.182946
9.335341
15.956717
25.569862
24.925743
24.820614
30.279232
23.100540
13.407426
15.034614
15.646114
16.391142
0.000000
0.000000
77.656097
78.182220
62.741070
26.115782
18.679329
18.506004
21.636929
31.710411
25.544731
15.391650
13.459846
11.308814
12.080639
13.072355
14.894835
23.267199
30.817513
19.287033
9.492746
5.968870
4.831645
4.339237
5.266112
10.212803
28.811932
12.194256
0.000000
0.000000
23.370750
88.677750
38.008511
12.308472
10.606713
8.685390
10.955978
21.079508
23.341291
13.761399
7.074931
3.864219
2.939648
5.102309
17.271534
37.787174
17.765118
9.681884
10.588793
11.584152
13.480298
13.809425
10.697979
7.014674
5.435524
6.110130
6.051002
12.694620
49.592804
52.518280
49.512798
15.996209
11.947796
16.679272
34.604404
26.204613
11.036189
8.543920
14.431345
19.889914
20.926926
23.536678
24.393679
12.234159
6.492352
11.001527
11.661467
13.569549
0.000000
