# vtk DataFile Version 3.0
VortexCoreLine
ASCII
DATASET POLYDATA
POINTS 51 float
2.519690 0.548387 0.444444
2.519732 0.597883 0.530721
2.483721 0.647569 0.607727
2.405386 0.681474 0.655582
2.308512 0.681625 0.673153
2.218297 0.642224 0.669554
2.162629 0.563799 0.648948
2.150484 0.469125 0.629888
2.167173 0.376959 0.625551
2.206722 0.300777 0.635401
2.263303 0.253280 0.652822
2.327096 0.233053 0.670962
2.393557 0.231181 0.687978
2.460974 0.241802 0.705128
2.527319 0.264138 0.726116
2.587126 0.302248 0.756484
2.626220 0.363639 0.798923
2.625993 0.446118 0.838846
2.590745 0.531517 0.863738
2.532050 0.607652 0.877042
2.455440 0.668406 0.883163
2.364990 0.707980 0.883063
2.266785 0.720373 0.875711
2.172810 0.694885 0.856950
2.108222 0.625100 0.830964
2.074319 0.535333 0.813052
2.058214 0.440360 0.805080
2.053166 0.345053 0.805189
2.057193 0.252064 0.811202
2.073733 0.165256 0.819876
2.111995 0.095322 0.813542
2.164776 0.062064 0.773787
2.218351 0.050227 0.726215
2.272760 0.046171 0.683623
2.331766 0.047618 0.652129
2.397811 0.056521 0.628179
2.467951 0.073915 0.606319
2.539765 0.101296 0.584144
2.611419 0.140382 0.559934
2.679171 0.193436 0.533467
2.729125 0.269813 0.507050
2.750414 0.364254 0.487721
2.756587 0.463072 0.475525
2.756037 0.562664 0.467549
2.749761 0.662063 0.461329
2.734783 0.759731 0.452855
2.705107 0.849403 0.435474
2.657478 0.910236 0.398416
2.607284 0.936897 0.346430
2.560427 0.947724 0.289600
2.515876 0.949693 0.231027
LINES 1 52
51 0 1 2 3 4 5 6 7 8 9 10 11 12 13 14 15 16 17 18 19 20 21 22 23 24 25 26 27 28 29 30 31 32 33 34 35 36 37 38 39 40 41 42 43 44 45 46 47 48 49 50 
POINT_DATA 51
SCALARS sample_scalars float 1
LOOKUP_TABLE lookup_table
0.000000
21.673206
31.783161
28.901352
26.624067
32.339756
27.475016
19.450247
19.454863
23.194262
21.805233
15.469265
10.244996
9.656080
14.579444
23.367636
29.051859
23.418983
16.535301
14.530454
15.217485
16.949179
23.134113
31.483223
22.030565
12.421622
8.146421
6.597339
8.497268
20.552660
39.001984
17.877584
6.977129
10.970973
10.095471
6.620425
6.698405
7.441125
9.065380
17.985203
20.469229
9.970325
4.577185
3.438776
5.262241
10.992217
24.094204
25.862665
12.656412
7.187608
0.000000
